nqpoint: 1204   
npath: 4      
segment_nqpoint:
- 301
- 301
- 301
- 301
reciprocal_lattice:
- [  -0.16797081,   0.16797081,   0.16797081 ] # a*
- [   0.16797081,  -0.16797081,   0.16797081 ] # b*
- [   0.16797081,   0.16797081,  -0.16797081 ] # c*
natom: 3      
lattice:
- [     0.000000000000000,     2.976707697552113,     2.976707697552113 ] # a
- [     2.976707697552113,     0.000000000000000,     2.976707697552113 ] # b
- [     2.976707697552113,     2.976707697552113,     0.000000000000000 ] # c
points:
- symbol: Ir # 1
  coordinates: [  0.000000000000000,  0.000000000000000,  0.000000000000000 ]
  mass: 192.217000
- symbol: Ge # 2
  coordinates: [  0.250000000000000,  0.250000000000000,  0.250000000000000 ]
  mass: 72.640000
- symbol: Ta # 3
  coordinates: [  0.750000000000000,  0.750000000000000,  0.750000000000000 ]
  mass: 180.947880
supercell_matrix:
- [   16,    0,    0 ]
- [    0,   16,    0 ]
- [    0,    0,   16 ]

phonon:
- q-position: [    0.0000000,    0.0000000,    0.0000000 ]
  distance:    0.0000000
  band:
  - # 1
    frequency:   -0.5655750129
  - # 2
    frequency:   -0.5655750129
  - # 3
    frequency:   -0.4776330645
  - # 4
    frequency:  177.4870744156
  - # 5
    frequency:  177.4870744156
  - # 6
    frequency:  183.7329066913
  - # 7
    frequency:  208.6847529539
  - # 8
    frequency:  208.6847529539
  - # 9
    frequency:  240.1644230526

- q-position: [    0.0016667,    0.0016667,    0.0000000 ]
  distance:    0.0005599
  band:
  - # 1
    frequency:   -0.2989433139
  - # 2
    frequency:   -0.2989300736
  - # 3
    frequency:    0.7267574790
  - # 4
    frequency:  177.4878006036
  - # 5
    frequency:  177.4878007391
  - # 6
    frequency:  183.7322743075
  - # 7
    frequency:  208.6846057994
  - # 8
    frequency:  208.6846059327
  - # 9
    frequency:  240.1650576958

- q-position: [    0.0033333,    0.0033333,    0.0000000 ]
  distance:    0.0011198
  band:
  - # 1
    frequency:    0.7759979711
  - # 2
    frequency:    0.7760081788
  - # 3
    frequency:    1.6724284286
  - # 4
    frequency:  177.4899786434
  - # 5
    frequency:  177.4899789278
  - # 6
    frequency:  183.7303770505
  - # 7
    frequency:  208.6841648063
  - # 8
    frequency:  208.6841650787
  - # 9
    frequency:  240.1669613316

- q-position: [    0.0050000,    0.0050000,    0.0000000 ]
  distance:    0.0016797
  band:
  - # 1
    frequency:    1.3246769314
  - # 2
    frequency:    1.3246859107
  - # 3
    frequency:    2.5647848225
  - # 4
    frequency:  177.4936065706
  - # 5
    frequency:  177.4936070285
  - # 6
    frequency:  183.7272146041
  - # 7
    frequency:  208.6834309921
  - # 8
    frequency:  208.6834314147
  - # 9
    frequency:  240.1701330777

- q-position: [    0.0066667,    0.0066667,    0.0000000 ]
  distance:    0.0022396
  band:
  - # 1
    frequency:    1.8353368994
  - # 2
    frequency:    1.8353455538
  - # 3
    frequency:    3.4454382932
  - # 4
    frequency:  177.4986811170
  - # 5
    frequency:  177.4986817815
  - # 6
    frequency:  183.7227864415
  - # 7
    frequency:  208.6824060545
  - # 8
    frequency:  208.6824066432
  - # 9
    frequency:  240.1745714646

- q-position: [    0.0083333,    0.0083333,    0.0000000 ]
  distance:    0.0027995
  band:
  - # 1
    frequency:    2.3330895386
  - # 2
    frequency:    2.3330980654
  - # 3
    frequency:    4.3214773464
  - # 4
    frequency:  177.5051977128
  - # 5
    frequency:  177.5051986227
  - # 6
    frequency:  183.7170918269
  - # 7
    frequency:  208.6810923714
  - # 8
    frequency:  208.6810931456
  - # 9
    frequency:  240.1802744357

- q-position: [    0.0100000,    0.0100000,    0.0000000 ]
  distance:    0.0033594
  band:
  - # 1
    frequency:    2.8247790835
  - # 2
    frequency:    2.8247875550
  - # 3
    frequency:    5.1951598860
  - # 4
    frequency:  177.5131504881
  - # 5
    frequency:  177.5131516857
  - # 6
    frequency:  183.7101298163
  - # 7
    frequency:  208.6794930001
  - # 8
    frequency:  208.6794939823
  - # 9
    frequency:  240.1872393487

- q-position: [    0.0116667,    0.0116667,    0.0000000 ]
  distance:    0.0039193
  band:
  - # 1
    frequency:    3.3131193109
  - # 2
    frequency:    3.3131277617
  - # 3
    frequency:    6.0674235230
  - # 4
    frequency:  177.5225322755
  - # 5
    frequency:  177.5225338053
  - # 6
    frequency:  183.7018992594
  - # 7
    frequency:  208.6776116776
  - # 8
    frequency:  208.6776128922
  - # 9
    frequency:  240.1954629764

- q-position: [    0.0133333,    0.0133333,    0.0000000 ]
  distance:    0.0044792
  band:
  - # 1
    frequency:    3.7994155063
  - # 2
    frequency:    3.7994239562
  - # 3
    frequency:    6.9387203128
  - # 4
    frequency:  177.5333346133
  - # 5
    frequency:  177.5333365211
  - # 6
    frequency:  183.6923988013
  - # 7
    frequency:  208.6754528188
  - # 8
    frequency:  208.6754542919
  - # 9
    frequency:  240.2049415086

- q-position: [    0.0150000,    0.0150000,    0.0000000 ]
  distance:    0.0050391
  band:
  - # 1
    frequency:    4.2843775850
  - # 2
    frequency:    4.2843860470
  - # 3
    frequency:    7.8092887922
  - # 4
    frequency:  177.5455477497
  - # 5
    frequency:  177.5455500818
  - # 6
    frequency:  183.6816268855
  - # 7
    frequency:  208.6730215166
  - # 8
    frequency:  208.6730232750
  - # 9
    frequency:  240.2156705536

- q-position: [    0.0166667,    0.0166667,    0.0000000 ]
  distance:    0.0055990
  band:
  - # 1
    frequency:    4.7684266185
  - # 2
    frequency:    4.7684351023
  - # 3
    frequency:    8.6792614453
  - # 4
    frequency:  177.5591606470
  - # 5
    frequency:  177.5591634502
  - # 6
    frequency:  183.6695817562
  - # 7
    frequency:  208.6703235407
  - # 8
    frequency:  208.6703256118
  - # 9
    frequency:  240.2276451407

- q-position: [    0.0183333,    0.0183333,    0.0000000 ]
  distance:    0.0061589
  band:
  - # 1
    frequency:    5.2518291851
  - # 2
    frequency:    5.2518376984
  - # 3
    frequency:    9.5487131781
  - # 4
    frequency:  177.5741609876
  - # 5
    frequency:  177.5741643085
  - # 6
    frequency:  183.6562614614
  - # 7
    frequency:  208.6673653364
  - # 8
    frequency:  208.6673677479
  - # 9
    frequency:  240.2408597220

- q-position: [    0.0200000,    0.0200000,    0.0000000 ]
  distance:    0.0067188
  band:
  - # 1
    frequency:    5.7347629397
  - # 2
    frequency:    5.7347714893
  - # 3
    frequency:   10.4176854330
  - # 4
    frequency:  177.5905351792
  - # 5
    frequency:  177.5905390644
  - # 6
    frequency:  183.6416638566
  - # 7
    frequency:  208.6641540234
  - # 8
    frequency:  208.6641568030
  - # 9
    frequency:  240.2553081754

- q-position: [    0.0216667,    0.0216667,    0.0000000 ]
  distance:    0.0072787
  band:
  - # 1
    frequency:    6.2173513253
  - # 2
    frequency:    6.2173599172
  - # 3
    frequency:   11.2861991286
  - # 4
    frequency:  177.6082683621
  - # 5
    frequency:  177.6082728580
  - # 6
    frequency:  183.6257866086
  - # 7
    frequency:  208.6606973949
  - # 8
    frequency:  208.6607005699
  - # 9
    frequency:  240.2709838074

- q-position: [    0.0233333,    0.0233333,    0.0000000 ]
  distance:    0.0078386
  band:
  - # 1
    frequency:    6.6996831611
  - # 2
    frequency:    6.6996918010
  - # 3
    frequency:   12.1542620362
  - # 4
    frequency:  177.6273444165
  - # 5
    frequency:  177.6273495690
  - # 6
    frequency:  183.6086271995
  - # 7
    frequency:  208.6570039154
  - # 8
    frequency:  208.6570075132
  - # 9
    frequency:  240.2878793560

- q-position: [    0.0250000,    0.0250000,    0.0000000 ]
  distance:    0.0083985
  band:
  - # 1
    frequency:    7.1818242843
  - # 2
    frequency:    7.1818329775
  - # 3
    frequency:   13.0218731986
  - # 4
    frequency:  177.6477459701
  - # 5
    frequency:  177.6477518247
  - # 6
    frequency:  183.5901829317
  - # 7
    frequency:  208.6530827198
  - # 8
    frequency:  208.6530867671
  - # 9
    frequency:  240.3059869945

- q-position: [    0.0266667,    0.0266667,    0.0000000 ]
  distance:    0.0089584
  band:
  - # 1
    frequency:    7.6638247710
  - # 2
    frequency:    7.6638335230
  - # 3
    frequency:   13.8890256895
  - # 4
    frequency:  177.6694544067
  - # 5
    frequency:  177.6694610085
  - # 6
    frequency:  183.5704509319
  - # 7
    frequency:  208.6489436110
  - # 8
    frequency:  208.6489481340
  - # 9
    frequency:  240.3252983349

- q-position: [    0.0283333,    0.0283333,    0.0000000 ]
  distance:    0.0095183
  band:
  - # 1
    frequency:    8.1457235810
  - # 2
    frequency:    8.1457323969
  - # 3
    frequency:   14.7557083979
  - # 4
    frequency:  177.6924498760
  - # 5
    frequency:  177.6924572695
  - # 6
    frequency:  183.5494281573
  - # 7
    frequency:  208.6445970579
  - # 8
    frequency:  208.6446020823
  - # 9
    frequency:  240.3458044319

- q-position: [    0.0300000,    0.0300000,    0.0000000 ]
  distance:    0.0100782
  band:
  - # 1
    frequency:    8.6275516368
  - # 2
    frequency:    8.6275605218
  - # 3
    frequency:   15.6219072182
  - # 4
    frequency:  177.7167113029
  - # 5
    frequency:  177.7167195320
  - # 6
    frequency:  183.5271114005
  - # 7
    frequency:  208.6400541933
  - # 8
    frequency:  208.6400597442
  - # 9
    frequency:  240.3674957872

- q-position: [    0.0316667,    0.0316667,    0.0000000 ]
  distance:    0.0106382
  band:
  - # 1
    frequency:    9.1093339223
  - # 2
    frequency:    9.1093428816
  - # 3
    frequency:   16.4876058649
  - # 4
    frequency:  177.7422163984
  - # 5
    frequency:  177.7422255064
  - # 6
    frequency:  183.5034972955
  - # 7
    frequency:  208.6353268115
  - # 8
    frequency:  208.6353329131
  - # 9
    frequency:  240.3903623538

- q-position: [    0.0333333,    0.0333333,    0.0000000 ]
  distance:    0.0111981
  band:
  - # 1
    frequency:    9.5910909445
  - # 2
    frequency:    9.5910999831
  - # 3
    frequency:   17.3527864440
  - # 4
    frequency:  177.7689416709
  - # 5
    frequency:  177.7689517003
  - # 6
    frequency:  183.4785823243
  - # 7
    frequency:  208.6304273652
  - # 8
    frequency:  208.6304340409
  - # 9
    frequency:  240.4143935405

- q-position: [    0.0350000,    0.0350000,    0.0000000 ]
  distance:    0.0117580
  band:
  - # 1
    frequency:   10.0728397739
  - # 2
    frequency:   10.0728488970
  - # 3
    frequency:   18.2174298615
  - # 4
    frequency:  177.7968624378
  - # 5
    frequency:  177.7968734304
  - # 6
    frequency:  183.4523628226
  - # 7
    frequency:  208.6253689624
  - # 8
    frequency:  208.6253762350
  - # 9
    frequency:  240.4395782175

- q-position: [    0.0366667,    0.0366667,    0.0000000 ]
  distance:    0.0123179
  band:
  - # 1
    frequency:   10.5545947984
  - # 2
    frequency:   10.5546040110
  - # 3
    frequency:   19.0815161215
  - # 4
    frequency:  177.8259528381
  - # 5
    frequency:  177.8259648350
  - # 6
    frequency:  183.4248349876
  - # 7
    frequency:  208.6201653637
  - # 8
    frequency:  208.6201732549
  - # 9
    frequency:  240.4659047207

- q-position: [    0.0383333,    0.0383333,    0.0000000 ]
  distance:    0.0128778
  band:
  - # 1
    frequency:   11.0363682777
  - # 2
    frequency:   11.0363775849
  - # 3
    frequency:   19.9450245477
  - # 4
    frequency:  177.8561858459
  - # 5
    frequency:  177.8561988874
  - # 6
    frequency:  183.3959948843
  - # 7
    frequency:  208.6148309778
  - # 8
    frequency:  208.6148395086
  - # 9
    frequency:  240.4933608580

- q-position: [    0.0400000,    0.0400000,    0.0000000 ]
  distance:    0.0134377
  band:
  - # 1
    frequency:   11.5181707580
  - # 2
    frequency:   11.5181801647
  - # 3
    frequency:   20.8079339492
  - # 4
    frequency:  177.8875332841
  - # 5
    frequency:  177.8875474095
  - # 6
    frequency:  183.3658384535
  - # 7
    frequency:  208.6093808583
  - # 8
    frequency:  208.6093900486
  - # 9
    frequency:  240.5219339142

- q-position: [    0.0416667,    0.0416667,    0.0000000 ]
  distance:    0.0139976
  band:
  - # 1
    frequency:   12.0000113846
  - # 2
    frequency:   12.0000208957
  - # 3
    frequency:   21.6702227484
  - # 4
    frequency:  177.9199658389
  - # 5
    frequency:  177.9199810868
  - # 6
    frequency:  183.3343615191
  - # 7
    frequency:  208.6038306987
  - # 8
    frequency:  208.6038405676
  - # 9
    frequency:  240.5516106574

- q-position: [    0.0433333,    0.0433333,    0.0000000 ]
  distance:    0.0145575
  band:
  - # 1
    frequency:   12.4818981423
  - # 2
    frequency:   12.4819077626
  - # 3
    frequency:   22.5318690790
  - # 4
    frequency:  177.9534530753
  - # 5
    frequency:  177.9534694833
  - # 6
    frequency:  183.3015597966
  - # 7
    frequency:  208.5981968283
  - # 8
    frequency:  208.5982073936
  - # 9
    frequency:  240.5823773449

- q-position: [    0.0450000,    0.0450000,    0.0000000 ]
  distance:    0.0151174
  band:
  - # 1
    frequency:   12.9638380407
  - # 2
    frequency:   12.9638477749
  - # 3
    frequency:   23.3928508634
  - # 4
    frequency:  177.9879634529
  - # 5
    frequency:  177.9879810576
  - # 6
    frequency:  183.2674289010
  - # 7
    frequency:  208.5924962066
  - # 8
    frequency:  208.5925074853
  - # 9
    frequency:  240.6142197296

- q-position: [    0.0466667,    0.0466667,    0.0000000 ]
  distance:    0.0156773
  band:
  - # 1
    frequency:   13.4458372583
  - # 2
    frequency:   13.4458471109
  - # 3
    frequency:   24.2531458734
  - # 4
    frequency:  178.0234643428
  - # 5
    frequency:  178.0234831797
  - # 6
    frequency:  183.2319643555
  - # 7
    frequency:  208.5867464177
  - # 8
    frequency:  208.5867584258
  - # 9
    frequency:  240.6471230665

- q-position: [    0.0483333,    0.0483333,    0.0000000 ]
  distance:    0.0162372
  band:
  - # 1
    frequency:   13.9279012570
  - # 2
    frequency:   13.9279112326
  - # 3
    frequency:   25.1127317790
  - # 4
    frequency:  178.0599220447
  - # 5
    frequency:  178.0599421484
  - # 6
    frequency:  183.1951616003
  - # 7
    frequency:  208.5809656650
  - # 8
    frequency:  208.5809784171
  - # 9
    frequency:  240.6810721198

- q-position: [    0.0500000,    0.0500000,    0.0000000 ]
  distance:    0.0167971
  band:
  - # 1
    frequency:   14.4100348724
  - # 2
    frequency:   14.4100449751
  - # 3
    frequency:   25.9715861880
  - # 4
    frequency:  178.0973018051
  - # 5
    frequency:  178.0973232092
  - # 6
    frequency:  183.1570160020
  - # 7
    frequency:  208.5751727638
  - # 8
    frequency:  208.5751862737
  - # 9
    frequency:  240.7160511693

- q-position: [    0.0516667,    0.0516667,    0.0000000 ]
  distance:    0.0173570
  band:
  - # 1
    frequency:   14.8922423854
  - # 2
    frequency:   14.8922526193
  - # 3
    frequency:   26.8296866775
  - # 4
    frequency:  178.1355678364
  - # 5
    frequency:  178.1355905733
  - # 6
    frequency:  183.1175228623
  - # 7
    frequency:  208.5693871347
  - # 8
    frequency:  208.5694014149
  - # 9
    frequency:  240.7520440181

- q-position: [    0.0533333,    0.0533333,    0.0000000 ]
  distance:    0.0179169
  band:
  - # 1
    frequency:   15.3745275809
  - # 2
    frequency:   15.3745379499
  - # 3
    frequency:   27.6870108209
  - # 4
    frequency:  178.1746833363
  - # 5
    frequency:  178.1747074373
  - # 6
    frequency:  183.0766774283
  - # 7
    frequency:  208.5636287961
  - # 8
    frequency:  208.5636438582
  - # 9
    frequency:  240.7890339998

- q-position: [    0.0550000,    0.0550000,    0.0000000 ]
  distance:    0.0184768
  band:
  - # 1
    frequency:   15.8568937941
  - # 2
    frequency:   15.8569043020
  - # 3
    frequency:   28.5435362084
  - # 4
    frequency:  178.2146105084
  - # 5
    frequency:  178.2146360034
  - # 6
    frequency:  183.0344749020
  - # 7
    frequency:  208.5579183560
  - # 8
    frequency:  208.5579342102
  - # 9
    frequency:  240.8270039863

- q-position: [    0.0566667,    0.0566667,    0.0000000 ]
  distance:    0.0190367
  band:
  - # 1
    frequency:   16.3393439491
  - # 2
    frequency:   16.3393545992
  - # 3
    frequency:   29.3992404658
  - # 4
    frequency:  178.2553105828
  - # 5
    frequency:  178.2553375009
  - # 6
    frequency:  182.9909104503
  - # 7
    frequency:  208.5522770032
  - # 8
    frequency:  208.5522936586
  - # 9
    frequency:  240.8659363953

- q-position: [    0.0583333,    0.0583333,    0.0000000 ]
  distance:    0.0195966
  band:
  - # 1
    frequency:   16.8218805897
  - # 2
    frequency:   16.8218913852
  - # 3
    frequency:   30.2541012689
  - # 4
    frequency:  178.2967438386
  - # 5
    frequency:  178.2967722074
  - # 6
    frequency:  182.9459792154
  - # 7
    frequency:  208.5467264977
  - # 8
    frequency:  208.5467439623
  - # 9
    frequency:  240.9058131984

- q-position: [    0.0600000,    0.0600000,    0.0000000 ]
  distance:    0.0201565
  band:
  - # 1
    frequency:   17.3045059050
  - # 2
    frequency:   17.3045168489
  - # 3
    frequency:   31.1080963560
  - # 4
    frequency:  178.3388696265
  - # 5
    frequency:  178.3388994723
  - # 6
    frequency:  182.8996763253
  - # 7
    frequency:  208.5412891612
  - # 8
    frequency:  208.5413074417
  - # 9
    frequency:  240.9466159292

- q-position: [    0.0616667,    0.0616667,    0.0000000 ]
  distance:    0.0207164
  band:
  - # 1
    frequency:   17.7872217504
  - # 2
    frequency:   17.7872328453
  - # 3
    frequency:   31.9612035380
  - # 4
    frequency:  178.3816463921
  - # 5
    frequency:  178.3816777400
  - # 6
    frequency:  182.8519969045
  - # 7
    frequency:  208.5359878658
  - # 8
    frequency:  208.5360069678
  - # 9
    frequency:  240.9883256919

- q-position: [    0.0633333,    0.0633333,    0.0000000 ]
  distance:    0.0212763
  band:
  - # 1
    frequency:   18.2700296651
  - # 2
    frequency:   18.2700409134
  - # 3
    frequency:   32.8134007073
  - # 4
    frequency:  178.4250317006
  - # 5
    frequency:  178.4250645743
  - # 6
    frequency:  182.8029360849
  - # 7
    frequency:  208.5308460226
  - # 8
    frequency:  208.5308659506
  - # 9
    frequency:  241.0309231694

- q-position: [    0.0650000,    0.0650000,    0.0000000 ]
  distance:    0.0218362
  band:
  - # 1
    frequency:   18.7529308863
  - # 2
    frequency:   18.7529422901
  - # 3
    frequency:   33.6646658448
  - # 4
    frequency:  178.4689822616
  - # 5
    frequency:  178.4690166834
  - # 6
    frequency:  182.7524890169
  - # 7
    frequency:  208.5258875698
  - # 8
    frequency:  208.5259083269
  - # 9
    frequency:  241.0743886324

- q-position: [    0.0666667,    0.0666667,    0.0000000 ]
  distance:    0.0223961
  band:
  - # 1
    frequency:   19.2359263614
  - # 2
    frequency:   19.2359379226
  - # 3
    frequency:   34.5149770256
  - # 4
    frequency:  178.5134539556
  - # 5
    frequency:  178.5134899464
  - # 6
    frequency:  182.7006508806
  - # 7
    frequency:  208.5211369590
  - # 8
    frequency:  208.5211585472
  - # 9
    frequency:  241.1187019477

- q-position: [    0.0683333,    0.0683333,    0.0000000 ]
  distance:    0.0229560
  band:
  - # 1
    frequency:   19.7190167580
  - # 2
    frequency:   19.7190284780
  - # 3
    frequency:   35.3643124240
  - # 4
    frequency:  178.5584018605
  - # 5
    frequency:  178.5584394399
  - # 6
    frequency:  182.6474168974
  - # 7
    frequency:  208.5166191417
  - # 8
    frequency:  208.5166415620
  - # 9
    frequency:  241.1638425877

- q-position: [    0.0700000,    0.0700000,    0.0000000 ]
  distance:    0.0235159
  band:
  - # 1
    frequency:   20.2022024723
  - # 2
    frequency:   20.2022143522
  - # 3
    frequency:   36.2126503174
  - # 4
    frequency:  178.6037802800
  - # 5
    frequency:  178.6038194659
  - # 6
    frequency:  182.5927823414
  - # 7
    frequency:  208.5123595546
  - # 8
    frequency:  208.5123828066
  - # 9
    frequency:  241.2097896393

- q-position: [    0.0716667,    0.0716667,    0.0000000 ]
  distance:    0.0240758
  band:
  - # 1
    frequency:   20.6854836359
  - # 2
    frequency:   20.6854956766
  - # 3
    frequency:   37.0599690888
  - # 4
    frequency:  178.6495427716
  - # 5
    frequency:  178.6495835805
  - # 6
    frequency:  182.5367425517
  - # 7
    frequency:  208.5083841036
  - # 8
    frequency:  208.5084081857
  - # 9
    frequency:  241.2565218130

- q-position: [    0.0733333,    0.0733333,    0.0000000 ]
  distance:    0.0246357
  band:
  - # 1
    frequency:   21.1688601223
  - # 2
    frequency:   21.1688723244
  - # 3
    frequency:   37.9062472296
  - # 4
    frequency:  178.6956421768
  - # 5
    frequency:  178.6956846238
  - # 6
    frequency:  182.4792929435
  - # 7
    frequency:  208.5047191472
  - # 8
    frequency:  208.5047440567
  - # 9
    frequency:  241.3040174526

- q-position: [    0.0750000,    0.0750000,    0.0000000 ]
  distance:    0.0251956
  band:
  - # 1
    frequency:   21.6523315518
  - # 2
    frequency:   21.6523439153
  - # 3
    frequency:   38.7514633409
  - # 4
    frequency:  178.7420306514
  - # 5
    frequency:  178.7420747497
  - # 6
    frequency:  182.4204290212
  - # 7
    frequency:  208.5013914790
  - # 8
    frequency:  208.5014172122
  - # 9
    frequency:  241.3522545445

- q-position: [    0.0766667,    0.0766667,    0.0000000 ]
  distance:    0.0257555
  band:
  - # 1
    frequency:   22.1358972956
  - # 2
    frequency:   22.1359098205
  - # 3
    frequency:   39.5955961344
  - # 4
    frequency:  178.7886596970
  - # 5
    frequency:  178.7887054585
  - # 6
    frequency:  182.3601463896
  - # 7
    frequency:  208.4984283093
  - # 8
    frequency:  208.4984548612
  - # 9
    frequency:  241.4012107275

- q-position: [    0.0783333,    0.0783333,    0.0000000 ]
  distance:    0.0263154
  band:
  - # 1
    frequency:   22.6195564798
  - # 2
    frequency:   22.6195691657
  - # 3
    frequency:   40.4386244329
  - # 4
    frequency:  178.8354801934
  - # 5
    frequency:  178.8355276283
  - # 6
    frequency:  182.2984407670
  - # 7
    frequency:  208.4958572452
  - # 8
    frequency:  208.4958846096
  - # 9
    frequency:  241.4508633026

- q-position: [    0.0800000,    0.0800000,    0.0000000 ]
  distance:    0.0268753
  band:
  - # 1
    frequency:   23.1033079889
  - # 2
    frequency:   23.1033208349
  - # 3
    frequency:   41.2805271699
  - # 4
    frequency:  178.8824424323
  - # 5
    frequency:  178.8824915491
  - # 6
    frequency:  182.2353079974
  - # 7
    frequency:  208.4937062699
  - # 8
    frequency:  208.4937344397
  - # 9
    frequency:  241.5011892426

- q-position: [    0.0816667,    0.0816667,    0.0000000 ]
  distance:    0.0274352
  band:
  - # 1
    frequency:   23.5871504681
  - # 2
    frequency:   23.5871634731
  - # 3
    frequency:   42.1212833894
  - # 4
    frequency:  178.9294961512
  - # 5
    frequency:  178.9295469567
  - # 6
    frequency:  182.1707440631
  - # 7
    frequency:  208.4920037213
  - # 8
    frequency:  208.4920326882
  - # 9
    frequency:  241.5521652023

- q-position: [    0.0833333,    0.0833333,    0.0000000 ]
  distance:    0.0279951
  band:
  - # 1
    frequency:   24.0710823262
  - # 2
    frequency:   24.0710954888
  - # 3
    frequency:   42.9608722440
  - # 4
    frequency:  178.9765905691
  - # 5
    frequency:  178.9766430683
  - # 6
    frequency:  182.1047450975
  - # 7
    frequency:  208.4907782689
  - # 8
    frequency:  208.4908080236
  - # 9
    frequency:  241.6037675287

- q-position: [    0.0850000,    0.0850000,    0.0000000 ]
  distance:    0.0285550
  band:
  - # 1
    frequency:   24.5551017379
  - # 2
    frequency:   24.5551150562
  - # 3
    frequency:   43.7992729943
  - # 4
    frequency:  179.0236744225
  - # 5
    frequency:  179.0237286189
  - # 6
    frequency:  182.0373073978
  - # 7
    frequency:  208.4900588901
  - # 8
    frequency:  208.4900894221
  - # 9
    frequency:  241.6559722707

- q-position: [    0.0866667,    0.0866667,    0.0000000 ]
  distance:    0.0291149
  band:
  - # 1
    frequency:   25.0392066455
  - # 2
    frequency:   25.0392201175
  - # 3
    frequency:   44.6364650059
  - # 4
    frequency:  179.0706960029
  - # 5
    frequency:  179.0707518981
  - # 6
    frequency:  181.9684274380
  - # 7
    frequency:  208.4898748449
  - # 8
    frequency:  208.4899061428
  - # 9
    frequency:  241.7087551900

- q-position: [    0.0883333,    0.0883333,    0.0000000 ]
  distance:    0.0296748
  band:
  - # 1
    frequency:   25.5233947612
  - # 2
    frequency:   25.5234083844
  - # 3
    frequency:   45.4724277479
  - # 4
    frequency:  179.1176031951
  - # 5
    frequency:  179.1176607889
  - # 6
    frequency:  181.8981018819
  - # 7
    frequency:  208.4902556499
  - # 8
    frequency:  208.4902877012
  - # 9
    frequency:  241.7620917707

- q-position: [    0.0900000,    0.0900000,    0.0000000 ]
  distance:    0.0302347
  band:
  - # 1
    frequency:   26.0076635687
  - # 2
    frequency:   26.0076773405
  - # 3
    frequency:   46.3071407893
  - # 4
    frequency:  179.1643435159
  - # 5
    frequency:  179.1644028063
  - # 6
    frequency:  181.8263275961
  - # 7
    frequency:  208.4912310507
  - # 8
    frequency:  208.4912638421
  - # 9
    frequency:  241.8159572305

- q-position: [    0.0916667,    0.0916667,    0.0000000 ]
  distance:    0.0307946
  band:
  - # 1
    frequency:   26.4920103250
  - # 2
    frequency:   26.4920242422
  - # 3
    frequency:   47.1405837963
  - # 4
    frequency:  179.2108641551
  - # 5
    frequency:  179.2109251381
  - # 6
    frequency:  181.7531016635
  - # 7
    frequency:  208.4928309941
  - # 8
    frequency:  208.4928645112
  - # 9
    frequency:  241.8703265304

- q-position: [    0.0933333,    0.0933333,    0.0000000 ]
  distance:    0.0313546
  band:
  - # 1
    frequency:   26.9764320615
  - # 2
    frequency:   26.9764461209
  - # 3
    frequency:   47.9727365287
  - # 4
    frequency:  179.2571120157
  - # 5
    frequency:  179.2571746857
  - # 6
    frequency:  181.6784213960
  - # 7
    frequency:  208.4950855975
  - # 8
    frequency:  208.4951198250
  - # 9
    frequency:  241.9251743857

- q-position: [    0.0950000,    0.0950000,    0.0000000 ]
  distance:    0.0319145
  band:
  - # 1
    frequency:   27.4609255864
  - # 2
    frequency:   27.4609397843
  - # 3
    frequency:   48.8035788356
  - # 4
    frequency:  179.3030337565
  - # 5
    frequency:  179.3030981058
  - # 6
    frequency:  181.6022843484
  - # 7
    frequency:  208.4980251188
  - # 8
    frequency:  208.4980600406
  - # 9
    frequency:  241.9804752763

- q-position: [    0.0966667,    0.0966667,    0.0000000 ]
  distance:    0.0324744
  band:
  - # 1
    frequency:   27.9454874855
  - # 2
    frequency:   27.9455018180
  - # 3
    frequency:   49.6330906514
  - # 4
    frequency:  179.3485758348
  - # 5
    frequency:  179.3486418538
  - # 6
    frequency:  181.5246883315
  - # 7
    frequency:  208.5016799247
  - # 8
    frequency:  208.5017155236
  - # 9
    frequency:  242.0362034575

- q-position: [    0.0983333,    0.0983333,    0.0000000 ]
  distance:    0.0330343
  band:
  - # 1
    frequency:   28.4301141243
  - # 2
    frequency:   28.4301285872
  - # 3
    frequency:   50.4612519912
  - # 4
    frequency:  179.3936845504
  - # 5
    frequency:  179.3937522276
  - # 6
    frequency:  181.4456314258
  - # 7
    frequency:  208.5060804567
  - # 8
    frequency:  208.5061167150
  - # 9
    frequency:  242.0923329708

- q-position: [    0.1000000,    0.1000000,    0.0000000 ]
  distance:    0.0335942
  band:
  - # 1
    frequency:   28.9148016489
  - # 2
    frequency:   28.9148162378
  - # 3
    frequency:   51.2880429453
  - # 4
    frequency:  179.4383060897
  - # 5
    frequency:  179.4383754118
  - # 6
    frequency:  181.3651119947
  - # 7
    frequency:  208.5112571983
  - # 8
    frequency:  208.5112940972
  - # 9
    frequency:  242.1488376540

- q-position: [    0.1016667,    0.1016667,    0.0000000 ]
  distance:    0.0341541
  band:
  - # 1
    frequency:   29.3995459885
  - # 2
    frequency:   29.3995606985
  - # 3
    frequency:   52.1134436745
  - # 4
    frequency:  179.4823865719
  - # 5
    frequency:  179.4824575233
  - # 6
    frequency:  181.2831286983
  - # 7
    frequency:  208.5172406388
  - # 8
    frequency:  208.5172781589
  - # 9
    frequency:  242.2056911527

- q-position: [    0.1033333,    0.1033333,    0.0000000 ]
  distance:    0.0347140
  band:
  - # 1
    frequency:   29.8843428559
  - # 2
    frequency:   29.8843576821
  - # 3
    frequency:   52.9374344038
  - # 4
    frequency:  179.5258720943
  - # 5
    frequency:  179.5259446577
  - # 6
    frequency:  181.1996805072
  - # 7
    frequency:  208.5240612377
  - # 8
    frequency:  208.5240993588
  - # 9
    frequency:  242.2628669301

- q-position: [    0.1050000,    0.1050000,    0.0000000 ]
  distance:    0.0352739
  band:
  - # 1
    frequency:   30.3691877501
  - # 2
    frequency:   30.3692026873
  - # 3
    frequency:   53.7599954164
  - # 4
    frequency:  179.5687087799
  - # 5
    frequency:  179.5687829360
  - # 6
    frequency:  181.1147667158
  - # 7
    frequency:  208.5317493875
  - # 8
    frequency:  208.5317880886
  - # 9
    frequency:  242.3203382788

- q-position: [    0.1066667,    0.1066667,    0.0000000 ]
  distance:    0.0358338
  band:
  - # 1
    frequency:   30.8540759573
  - # 2
    frequency:   30.8540910000
  - # 3
    frequency:   54.5811070478
  - # 4
    frequency:  179.6108428246
  - # 5
    frequency:  179.6109185518
  - # 6
    frequency:  181.0283869566
  - # 7
    frequency:  208.5403353752
  - # 8
    frequency:  208.5403746348
  - # 9
    frequency:  242.3780783308

- q-position: [    0.1083333,    0.1083333,    0.0000000 ]
  distance:    0.0363937
  band:
  - # 1
    frequency:   31.3390025532
  - # 2
    frequency:   31.3390176957
  - # 3