mesh: [     8,     8,     8 ]
nqpoint: 512    
reciprocal_lattice:
- [  -0.17673030,   0.17673030,   0.17673030 ] # a*
- [   0.17673030,  -0.17673030,   0.17673030 ] # b*
- [   0.17673030,   0.17673030,  -0.17673030 ] # c*
natom:   2      
lattice:
- [     0.000000000000000,     2.829169702381645,     2.829169702381645 ] # a
- [     2.829169702381645,     0.000000000000000,     2.829169702381645 ] # b
- [     2.829169702381645,     2.829169702381645,     0.000000000000000 ] # c
points:
- symbol: Ga # 1
  coordinates: [  0.000000000000000,  0.000000000000000,  0.000000000000000 ]
  mass: 69.723000
- symbol: As # 2
  coordinates: [  0.250000000000000,  0.250000000000000,  0.250000000000000 ]
  mass: 74.921600

phonon:
- q-position: [    0.0000000,    0.0000000,    0.0000000 ]
  distance_from_gamma:  0.000000000
  weight: 1    
  band:
  - # 1
    frequency:    -2.2566594462
  - # 2
    frequency:    -2.2566594462
  - # 3
    frequency:    -2.2566594462
  - # 4
    frequency:   263.1675558104
  - # 5
    frequency:   263.1675558104
  - # 6
    frequency:   263.1675558104

- q-position: [    0.1250000,    0.0000000,    0.0000000 ]
  distance_from_gamma:  0.038263232
  weight: 1    
  band:
  - # 1
    frequency:    27.8141274922
  - # 2
    frequency:    27.8141276285
  - # 3
    frequency:    65.9311831740
  - # 4
    frequency:   261.1095752279
  - # 5
    frequency:   261.1095752360
  - # 6
    frequency:   274.3347001638

- q-position: [    0.2500000,    0.0000000,    0.0000000 ]
  distance_from_gamma:  0.076526463
  weight: 1    
  band:
  - # 1
    frequency:    47.9269748332
  - # 2
    frequency:    47.9269748332
  - # 3
    frequency:   125.6508039940
  - # 4
    frequency:   257.1909388939
  - # 5
    frequency:   257.1909388939
  - # 6
    frequency:   266.9704642580

- q-position: [    0.3750000,    0.0000000,    0.0000000 ]
  distance_from_gamma:  0.114789695
  weight: 1    
  band:
  - # 1
    frequency:    55.9247292145
  - # 2
    frequency:    55.9247292815
  - # 3
    frequency:   174.2132719598
  - # 4
    frequency:   249.2375270814
  - # 5
    frequency:   255.6668108519
  - # 6
    frequency:   255.6668108601

- q-position: [    0.5000000,    0.0000000,    0.0000000 ]
  distance_from_gamma:  0.153052926
  weight: 1    
  band:
  - # 1
    frequency:    56.7483211383
  - # 2
    frequency:    56.7483211383
  - # 3
    frequency:   201.6785125327
  - # 4
    frequency:   231.3205324562
  - # 5
    frequency:   255.9864627609
  - # 6
    frequency:   255.9864627609

- q-position: [   -0.3750000,    0.0000000,    0.0000000 ]
  distance_from_gamma:  0.114789695
  weight: 1    
  band:
  - # 1
    frequency:    55.9247292145
  - # 2
    frequency:    55.9247292815
  - # 3
    frequency:   174.2132719598
  - # 4
    frequency:   249.2375270814
  - # 5
    frequency:   255.6668108519
  - # 6
    frequency:   255.6668108601

- q-position: [   -0.2500000,    0.0000000,    0.0000000 ]
  distance_from_gamma:  0.076526463
  weight: 1    
  band:
  - # 1
    frequency:    47.9269748332
  - # 2
    frequency:    47.9269748332
  - # 3
    frequency:   125.6508039940
  - # 4
    frequency:   257.1909388939
  - # 5
    frequency:   257.1909388939
  - # 6
    frequency:   266.9704642580

- q-position: [   -0.1250000,    0.0000000,    0.0000000 ]
  distance_from_gamma:  0.038263232
  weight: 1    
  band:
  - # 1
    frequency:    27.8141274922
  - # 2
    frequency:    27.8141276285
  - # 3
    frequency:    65.9311831740
  - # 4
    frequency:   261.1095752279
  - # 5
    frequency:   261.1095752360
  - # 6
    frequency:   274.3347001638

- q-position: [    0.0000000,    0.1250000,    0.0000000 ]
  distance_from_gamma:  0.038263232
  weight: 1    
  band:
  - # 1
    frequency:    27.8141274922
  - # 2
    frequency:    27.8141276285
  - # 3
    frequency:    65.9311831740
  - # 4
    frequency:   261.1095752279
  - # 5
    frequency:   261.1095752360
  - # 6
    frequency:   274.3347001638

- q-position: [    0.1250000,    0.1250000,    0.0000000 ]
  distance_from_gamma:  0.044182574
  weight: 1    
  band:
  - # 1
    frequency:    38.6972515394
  - # 2
    frequency:    38.6972516178
  - # 3
    frequency:    67.7681168487
  - # 4
    frequency:   259.1688666243
  - # 5
    frequency:   259.1688666496
  - # 6
    frequency:   275.8918673021

- q-position: [    0.2500000,    0.1250000,    0.0000000 ]
  distance_from_gamma:  0.073268510
  weight: 1    
  band:
  - # 1
    frequency:    54.0303790437
  - # 2
    frequency:    59.1568201673
  - # 3
    frequency:   110.6197967621
  - # 4
    frequency:   254.8170017197
  - # 5
    frequency:   256.0966696416
  - # 6
    frequency:   270.2533091812

- q-position: [    0.3750000,    0.1250000,    0.0000000 ]
  distance_from_gamma:  0.108224762
  weight: 1    
  band:
  - # 1
    frequency:    60.0579702478
  - # 2
    frequency:    74.3463018806
  - # 3
    frequency:   154.8215488668
  - # 4
    frequency:   248.9272262212
  - # 5
    frequency:   252.9347401426
  - # 6
    frequency:   259.8580911173

- q-position: [    0.5000000,    0.1250000,    0.0000000 ]
  distance_from_gamma:  0.144862257
  weight: 1    
  band:
  - # 1
    frequency:    61.6888793090
  - # 2
    frequency:    76.3051974374
  - # 3
    frequency:   187.6054319501
  - # 4
    frequency:   229.5871168081
  - # 5
    frequency:   253.5122858536
  - # 6
    frequency:   258.9963742288

- q-position: [   -0.3750000,    0.1250000,    0.0000000 ]
  distance_from_gamma:  0.132547722
  weight: 1    
  band:
  - # 1
    frequency:    62.7553103252
  - # 2
    frequency:    75.0946130048
  - # 3
    frequency:   179.4112595864
  - # 4
    frequency:   233.0255979443
  - # 5
    frequency:   253.4761185226
  - # 6
    frequency:   260.2424431464

- q-position: [   -0.2500000,    0.1250000,    0.0000000 ]
  distance_from_gamma:  0.096293688
  weight: 1    
  band:
  - # 1
    frequency:    55.8100525899
  - # 2
    frequency:    75.0543010993
  - # 3
    frequency:   139.7585116226
  - # 4
    frequency:   250.5236775305
  - # 5
    frequency:   254.8305807808
  - # 6
    frequency:   262.6828724625

- q-position: [   -0.1250000,    0.1250000,    0.0000000 ]
  distance_from_gamma:  0.062483596
  weight: 1    
  band:
  - # 1
    frequency:    39.5057859990
  - # 2
    frequency:    60.1437597863
  - # 3
    frequency:    95.6235168369
  - # 4
    frequency:   258.3460191864
  - # 5
    frequency:   258.7125934695
  - # 6
    frequency:   270.0614770484

- q-position: [    0.0000000,    0.2500000,    0.0000000 ]
  distance_from_gamma:  0.076526463
  weight: 1    
  band:
  - # 1
    frequency:    47.9269748332
  - # 2
    frequency:    47.9269748332
  - # 3
    frequency:   125.6508039940
  - # 4
    frequency:   257.1909388939
  - # 5
    frequency:   257.1909388939
  - # 6
    frequency:   266.9704642580

- q-position: [    0.1250000,    0.2500000,    0.0000000 ]
  distance_from_gamma:  0.073268510
  weight: 1    
  band:
  - # 1
    frequency:    54.0303790437
  - # 2
    frequency:    59.1568201673
  - # 3
    frequency:   110.6197967621
  - # 4
    frequency:   254.8170017197
  - # 5
    frequency:   256.0966696416
  - # 6
    frequency:   270.2533091812

- q-position: [    0.2500000,    0.2500000,    0.0000000 ]
  distance_from_gamma:  0.088365148
  weight: 1    
  band:
  - # 1
    frequency:    64.9479805146
  - # 2
    frequency:    64.9479805146
  - # 3
    frequency:   128.3434352299
  - # 4
    frequency:   250.1288590885
  - # 5
    frequency:   250.1288590885
  - # 6
    frequency:   270.9302565819

- q-position: [    0.3750000,    0.2500000,    0.0000000 ]
  distance_from_gamma:  0.114789695
  weight: 1    
  band:
  - # 1
    frequency:    69.0269457758
  - # 2
    frequency:    82.4584663573
  - # 3
    frequency:   154.3241348676
  - # 4
    frequency:   246.5270045340
  - # 5
    frequency:   248.2995389901
  - # 6
    frequency:   261.3609530429

- q-position: [    0.5000000,    0.2500000,    0.0000000 ]
  distance_from_gamma:  0.146537021
  weight: 1    
  band:
  - # 1
    frequency:    71.0008385648
  - # 2
    frequency:    97.0599410641
  - # 3
    frequency:   174.2277022733
  - # 4
    frequency:   228.5856283012
  - # 5
    frequency:   249.0300901805
  - # 6
    frequency:   260.1515072730

- q-position: [   -0.3750000,    0.2500000,    0.0000000 ]
  distance_from_gamma:  0.157763345
  weight: 1    
  band:
  - # 1
    frequency:    73.9828076345
  - # 2
    frequency:    97.5733119714
  - # 3
    frequency:   179.1185577333
  - # 4
    frequency:   215.4591987368
  - # 5
    frequency:   249.1022381146
  - # 6
    frequency:   263.6323767538

- q-position: [   -0.2500000,    0.2500000,    0.0000000 ]
  distance_from_gamma:  0.124967191
  weight: 1    
  band:
  - # 1
    frequency:    68.7768094595
  - # 2
    frequency:    96.8622227190
  - # 3
    frequency:   155.3571655014
  - # 4
    frequency:   230.3026143883
  - # 5
    frequency:   250.6649545857
  - # 6
    frequency:   264.7466034311

- q-position: [   -0.1250000,    0.2500000,    0.0000000 ]
  distance_from_gamma:  0.096293688
  weight: 1    
  band:
  - # 1
    frequency:    55.8100525899
  - # 2
    frequency:    75.0543010993
  - # 3
    frequency:   139.7585116226
  - # 4
    frequency:   250.5236775305
  - # 5
    frequency:   254.8305807808
  - # 6
    frequency:   262.6828724625

- q-position: [    0.0000000,    0.3750000,    0.0000000 ]
  distance_from_gamma:  0.114789695
  weight: 1    
  band:
  - # 1
    frequency:    55.9247292145
  - # 2
    frequency:    55.9247292815
  - # 3
    frequency:   174.2132719598
  - # 4
    frequency:   249.2375270814
  - # 5
    frequency:   255.6668108519
  - # 6
    frequency:   255.6668108601

- q-position: [    0.1250000,    0.3750000,    0.0000000 ]
  distance_from_gamma:  0.108224762
  weight: 1    
  band:
  - # 1
    frequency:    60.0579702478
  - # 2
    frequency:    74.3463018806
  - # 3
    frequency:   154.8215488668
  - # 4
    frequency:   248.9272262212
  - # 5
    frequency:   252.9347401426
  - # 6
    frequency:   259.8580911173

- q-position: [    0.2500000,    0.3750000,    0.0000000 ]
  distance_from_gamma:  0.114789695
  weight: 1    
  band:
  - # 1
    frequency:    69.0269457758
  - # 2
    frequency:    82.4584663573
  - # 3
    frequency:   154.3241348676
  - # 4
    frequency:   246.5270045340
  - # 5
    frequency:   248.2995389901
  - # 6
    frequency:   261.3609530429

- q-position: [    0.3750000,    0.3750000,    0.0000000 ]
  distance_from_gamma:  0.132547722
  weight: 1    
  band:
  - # 1
    frequency:    72.0994733721
  - # 2
    frequency:    72.0994734917
  - # 3
    frequency:   180.4047280115
  - # 4
    frequency:   246.7986002977
  - # 5
    frequency:   246.7986003065
  - # 6
    frequency:   254.4512181864

- q-position: [    0.5000000,    0.3750000,    0.0000000 ]
  distance_from_gamma:  0.157763345
  weight: 1    
  band:
  - # 1
    frequency:    73.4999259009
  - # 2
    frequency:    82.9810640593
  - # 3
    frequency:   196.5635491974
  - # 4
    frequency:   231.8740784289
  - # 5
    frequency:   247.5007070297
  - # 6
    frequency:   253.9979954044

- q-position: [   -0.3750000,    0.3750000,    0.0000000 ]
  distance_from_gamma:  0.187450787
  weight: 1    
  band:
  - # 1
    frequency:    77.5348519307
  - # 2
    frequency:    96.7877249120
  - # 3
    frequency:   196.5633922390
  - # 4
    frequency:   209.2802361205
  - # 5
    frequency:   247.3941041673
  - # 6
    frequency:   260.6728938914

- q-position: [   -0.2500000,    0.3750000,    0.0000000 ]
  distance_from_gamma:  0.157763345
  weight: 1    
  band:
  - # 1
    frequency:    73.9828076345
  - # 2
    frequency:    97.5733119714
  - # 3
    frequency:   179.1185577333
  - # 4
    frequency:   215.4591987368
  - # 5
    frequency:   249.1022381146
  - # 6
    frequency:   263.6323767538

- q-position: [   -0.1250000,    0.3750000,    0.0000000 ]
  distance_from_gamma:  0.132547722
  weight: 1    
  band:
  - # 1
    frequency:    62.7553103252
  - # 2
    frequency:    75.0946130048
  - # 3
    frequency:   179.4112595864
  - # 4
    frequency:   233.0255979443
  - # 5
    frequency:   253.4761185226
  - # 6
    frequency:   260.2424431464

- q-position: [    0.0000000,    0.5000000,    0.0000000 ]
  distance_from_gamma:  0.153052926
  weight: 1    
  band:
  - # 1
    frequency:    56.7483211383
  - # 2
    frequency:    56.7483211383
  - # 3
    frequency:   201.6785125327
  - # 4
    frequency:   231.3205324562
  - # 5
    frequency:   255.9864627609
  - # 6
    frequency:   255.9864627609

- q-position: [    0.1250000,    0.5000000,    0.0000000 ]
  distance_from_gamma:  0.144862257
  weight: 1    
  band:
  - # 1
    frequency:    61.6888793090
  - # 2
    frequency:    76.3051974374
  - # 3
    frequency:   187.6054319501
  - # 4
    frequency:   229.5871168081
  - # 5
    frequency:   253.5122858536
  - # 6
    frequency:   258.9963742288

- q-position: [    0.2500000,    0.5000000,    0.0000000 ]
  distance_from_gamma:  0.146537021
  weight: 1    
  band:
  - # 1
    frequency:    71.0008385648
  - # 2
    frequency:    97.0599410641
  - # 3
    frequency:   174.2277022733
  - # 4
    frequency:   228.5856283012
  - # 5
    frequency:   249.0300901805
  - # 6
    frequency:   260.1515072730

- q-position: [    0.3750000,    0.5000000,    0.0000000 ]
  distance_from_gamma:  0.157763345
  weight: 1    
  band:
  - # 1
    frequency:    73.4999259009
  - # 2
    frequency:    82.9810640593
  - # 3
    frequency:   196.5635491974
  - # 4
    frequency:   231.8740784289
  - # 5
    frequency:   247.5007070297
  - # 6
    frequency:   253.9979954044

- q-position: [    0.5000000,    0.5000000,    0.0000000 ]
  distance_from_gamma:  0.176730296
  weight: 1    
  band:
  - # 1
    frequency:    71.5728068833
  - # 2
    frequency:    71.5728068833
  - # 3
    frequency:   216.8800445657
  - # 4
    frequency:   230.7347749893
  - # 5
    frequency:   247.9503076668
  - # 6
    frequency:   247.9503076668

- q-position: [   -0.3750000,   -0.5000000,    0.0000000 ]
  distance_from_gamma:  0.157763345
  weight: 1    
  band:
  - # 1
    frequency:    73.4999259009
  - # 2
    frequency:    82.9810640593
  - # 3
    frequency:   196.5635491974
  - # 4
    frequency:   231.8740784289
  - # 5
    frequency:   247.5007070297
  - # 6
    frequency:   253.9979954044

- q-position: [   -0.2500000,   -0.5000000,    0.0000000 ]
  distance_from_gamma:  0.146537021
  weight: 1    
  band:
  - # 1
    frequency:    71.0008385648
  - # 2
    frequency:    97.0599410641
  - # 3
    frequency:   174.2277022733
  - # 4
    frequency:   228.5856283012
  - # 5
    frequency:   249.0300901805
  - # 6
    frequency:   260.1515072730

- q-position: [   -0.1250000,   -0.5000000,    0.0000000 ]
  distance_from_gamma:  0.144862257
  weight: 1    
  band:
  - # 1
    frequency:    61.6888793090
  - # 2
    frequency:    76.3051974374
  - # 3
    frequency:   187.6054319501
  - # 4
    frequency:   229.5871168081
  - # 5
    frequency:   253.5122858536
  - # 6
    frequency:   258.9963742288

- q-position: [    0.0000000,   -0.3750000,    0.0000000 ]
  distance_from_gamma:  0.114789695
  weight: 1    
  band:
  - # 1
    frequency:    55.9247292145
  - # 2
    frequency:    55.9247292815
  - # 3
    frequency:   174.2132719598
  - # 4
    frequency:   249.2375270814
  - # 5
    frequency:   255.6668108519
  - # 6
    frequency:   255.6668108601

- q-position: [    0.1250000,   -0.3750000,    0.0000000 ]
  distance_from_gamma:  0.132547722
  weight: 1    
  band:
  - # 1
    frequency:    62.7553103252
  - # 2
    frequency:    75.0946130048
  - # 3
    frequency:   179.4112595864
  - # 4
    frequency:   233.0255979443
  - # 5
    frequency:   253.4761185226
  - # 6
    frequency:   260.2424431464

- q-position: [    0.2500000,   -0.3750000,    0.0000000 ]
  distance_from_gamma:  0.157763345
  weight: 1    
  band:
  - # 1
    frequency:    73.9828076345
  - # 2
    frequency:    97.5733119714
  - # 3
    frequency:   179.1185577333
  - # 4
    frequency:   215.4591987368
  - # 5
    frequency:   249.1022381146
  - # 6
    frequency:   263.6323767538

- q-position: [    0.3750000,   -0.3750000,    0.0000000 ]
  distance_from_gamma:  0.187450787
  weight: 1    
  band:
  - # 1
    frequency:    77.5348519307
  - # 2
    frequency:    96.7877249120
  - # 3
    frequency:   196.5633922390
  - # 4
    frequency:   209.2802361205
  - # 5
    frequency:   247.3941041673
  - # 6
    frequency:   260.6728938914

- q-position: [   -0.5000000,   -0.3750000,    0.0000000 ]
  distance_from_gamma:  0.157763345
  weight: 1    
  band:
  - # 1
    frequency:    73.4999259009
  - # 2
    frequency:    82.9810640593
  - # 3
    frequency:   196.5635491974
  - # 4
    frequency:   231.8740784289
  - # 5
    frequency:   247.5007070297
  - # 6
    frequency:   253.9979954044

- q-position: [   -0.3750000,   -0.3750000,    0.0000000 ]
  distance_from_gamma:  0.132547722
  weight: 1    
  band:
  - # 1
    frequency:    72.0994733721
  - # 2
    frequency:    72.0994734917
  - # 3
    frequency:   180.4047280115
  - # 4
    frequency:   246.7986002977
  - # 5
    frequency:   246.7986003065
  - # 6
    frequency:   254.4512181864

- q-position: [   -0.2500000,   -0.3750000,    0.0000000 ]
  distance_from_gamma:  0.114789695
  weight: 1    
  band:
  - # 1
    frequency:    69.0269457758
  - # 2
    frequency:    82.4584663573
  - # 3
    frequency:   154.3241348676
  - # 4
    frequency:   246.5270045340
  - # 5
    frequency:   248.2995389901
  - # 6
    frequency:   261.3609530429

- q-position: [   -0.1250000,   -0.3750000,    0.0000000 ]
  distance_from_gamma:  0.108224762
  weight: 1    
  band:
  - # 1
    frequency:    60.0579702478
  - # 2
    frequency:    74.3463018806
  - # 3
    frequency:   154.8215488668
  - # 4
    frequency:   248.9272262212
  - # 5
    frequency:   252.9347401426
  - # 6
    frequency:   259.8580911173

- q-position: [    0.0000000,   -0.2500000,    0.0000000 ]
  distance_from_gamma:  0.076526463
  weight: 1    
  band:
  - # 1
    frequency:    47.9269748332
  - # 2
    frequency:    47.9269748332
  - # 3
    frequency:   125.6508039940
  - # 4
    frequency:   257.1909388939
  - # 5
    frequency:   257.1909388939
  - # 6
    frequency:   266.9704642580

- q-position: [    0.1250000,   -0.2500000,    0.0000000 ]
  distance_from_gamma:  0.096293688
  weight: 1    
  band:
  - # 1
    frequency:    55.8100525899
  - # 2
    frequency:    75.0543010993
  - # 3
    frequency:   139.7585116226
  - # 4
    frequency:   250.5236775305
  - # 5
    frequency:   254.8305807808
  - # 6
    frequency:   262.6828724625

- q-position: [    0.2500000,   -0.2500000,    0.0000000 ]
  distance_from_gamma:  0.124967191
  weight: 1    
  band:
  - # 1
    frequency:    68.7768094595
  - # 2
    frequency:    96.8622227190
  - # 3
    frequency:   155.3571655014
  - # 4
    frequency:   230.3026143883
  - # 5
    frequency:   250.6649545857
  - # 6
    frequency:   264.7466034311

- q-position: [    0.3750000,   -0.2500000,    0.0000000 ]
  distance_from_gamma:  0.157763345
  weight: 1    
  band:
  - # 1
    frequency:    73.9828076345
  - # 2
    frequency:    97.5733119714
  - # 3
    frequency:   179.1185577333
  - # 4
    frequency:   215.4591987368
  - # 5
    frequency:   249.1022381146
  - # 6
    frequency:   263.6323767538

- q-position: [   -0.5000000,   -0.2500000,    0.0000000 ]
  distance_from_gamma:  0.146537021
  weight: 1    
  band:
  - # 1
    frequency:    71.0008385648
  - # 2
    frequency:    97.0599410641
  - # 3
    frequency:   174.2277022733
  - # 4
    frequency:   228.5856283012
  - # 5
    frequency:   249.0300901805
  - # 6
    frequency:   260.1515072730

- q-position: [   -0.3750000,   -0.2500000,    0.0000000 ]
  distance_from_gamma:  0.114789695
  weight: 1    
  band:
  - # 1
    frequency:    69.0269457758
  - # 2
    frequency:    82.4584663573
  - # 3
    frequency:   154.3241348676
  - # 4
    frequency:   246.5270045340
  - # 5
    frequency:   248.2995389901
  - # 6
    frequency:   261.3609530429

- q-position: [   -0.2500000,   -0.2500000,    0.0000000 ]
  distance_from_gamma:  0.088365148
  weight: 1    
  band:
  - # 1
    frequency:    64.9479805146
  - # 2
    frequency:    64.9479805146
  - # 3
    frequency:   128.3434352299
  - # 4
    frequency:   250.1288590885
  - # 5
    frequency:   250.1288590885
  - # 6
    frequency:   270.9302565819

- q-position: [   -0.1250000,   -0.2500000,    0.0000000 ]
  distance_from_gamma:  0.073268510
  weight: 1    
  band:
  - # 1
    frequency:    54.0303790437
  - # 2
    frequency:    59.1568201673
  - # 3
    frequency:   110.6197967621
  - # 4
    frequency:   254.8170017197
  - # 5
    frequency:   256.0966696416
  - # 6
    frequency:   270.2533091812

- q-position: [    0.0000000,   -0.1250000,    0.0000000 ]
  distance_from_gamma:  0.038263232
  weight: 1    
  band:
  - # 1
    frequency:    27.8141274922
  - # 2
    frequency:    27.8141276285
  - # 3
    frequency:    65.9311831740
  - # 4
    frequency:   261.1095752279
  - # 5
    frequency:   261.1095752360
  - # 6
    frequency:   274.3347001638

- q-position: [    0.1250000,   -0.1250000,    0.0000000 ]
  distance_from_gamma:  0.062483596
  weight: 1    
  band:
  - # 1
    frequency:    39.5057859990
  - # 2
    frequency:    60.1437597863
  - # 3
    frequency:    95.6235168369
  - # 4
    frequency:   258.3460191864
  - # 5
    frequency:   258.7125934695
  - # 6
    frequency:   270.0614770484

- q-position: [    0.2500000,   -0.1250000,    0.0000000 ]
  distance_from_gamma:  0.096293688
  weight: 1    
  band:
  - # 1
    frequency:    55.8100525899
  - # 2
    frequency:    75.0543010993
  - # 3
    frequency:   139.7585116226
  - # 4
    frequency:   250.5236775305
  - # 5
    frequency:   254.8305807808
  - # 6
    frequency:   262.6828724625

- q-position: [    0.3750000,   -0.1250000,    0.0000000 ]
  distance_from_gamma:  0.132547722
  weight: 1    
  band:
  - # 1
    frequency:    62.7553103252
  - # 2
    frequency:    75.0946130048
  - # 3
    frequency:   179.4112595864
  - # 4
    frequency:   233.0255979443
  - # 5
    frequency:   253.4761185226
  - # 6
    frequency:   260.2424431464

- q-position: [   -0.5000000,   -0.1250000,    0.0000000 ]
  distance_from_gamma:  0.144862257
  weight: 1    
  band:
  - # 1
    frequency:    61.6888793090
  - # 2
    frequency:    76.3051974374
  - # 3
    frequency:   187.6054319501
  - # 4
    frequency:   229.5871168081
  - # 5
    frequency:   253.5122858536
  - # 6
    frequency:   258.9963742288

- q-position: [   -0.3750000,   -0.1250000,    0.0000000 ]
  distance_from_gamma:  0.108224762
  weight: 1    
  band:
  - # 1
    frequency:    60.0579702478
  - # 2
    frequency:    74.3463018806
  - # 3
    frequency:   154.8215488668
  - # 4
    frequency:   248.9272262212
  - # 5
    frequency:   252.9347401426
  - # 6
    frequency:   259.8580911173

- q-position: [   -0.2500000,   -0.1250000,    0.0000000 ]
  distance_from_gamma:  0.073268510
  weight: 1    
  band:
  - # 1
    frequency:    54.0303790437
  - # 2
    frequency:    59.1568201673
  - # 3
    frequency:   110.6197967621
  - # 4
    frequency:   254.8170017197
  - # 5
    frequency:   256.0966696416
  - # 6
    frequency:   270.2533091812

- q-position: [   -0.1250000,   -0.1250000,    0.0000000 ]
  distance_from_gamma:  0.044182574
  weight: 1    
  band:
  - # 1
    frequency:    38.6972515394
  - # 2
    frequency:    38.6972516178
  - # 3
    frequency:    67.7681168487
  - # 4
    frequency:   259.1688666243
  - # 5
    frequency:   259.1688666496
  - # 6
    frequency:   275.8918673021

- q-position: [    0.0000000,    0.0000000,    0.1250000 ]
  distance_from_gamma:  0.038263232
  weight: 1    
  band:
  - # 1
    frequency:    27.8141274922
  - # 2
    frequency:    27.8141276285
  - # 3
    frequency:    65.9311831740
  - # 4
    frequency:   261.1095752279
  - # 5
    frequency:   261.1095752360
  - # 6
    frequency:   274.3347001638

- q-position: [    0.1250000,    0.0000000,    0.1250000 ]
  distance_from_gamma:  0.044182574
  weight: 1    
  band:
  - # 1
    frequency:    38.6972515394
  - # 2
    frequency:    38.6972516178
  - # 3
    frequency:    67.7681168487
  - # 4
    frequency:   259.1688666243
  - # 5
    frequency:   259.1688666496
  - # 6
    frequency:   275.8918673021

- q-position: [    0.2500000,    0.0000000,    0.1250000 ]
  distance_from_gamma:  0.073268510
  weight: 1    
  band:
  - # 1
    frequency:    54.0303790437
  - # 2
    frequency:    59.1568201673
  - # 3
    frequency:   110.6197967621
  - # 4
    frequency:   254.8170017197
  - # 5
    frequency:   256.0966696416
  - # 6
    frequency:   270.2533091812

- q-position: [    0.3750000,    0.0000000,    0.1250000 ]
  distance_from_gamma:  0.108224762
  weight: 1    
  band:
  - # 1
    frequency:    60.0579702478
  - # 2
    frequency:    74.3463018806
  - # 3
    frequency:   154.8215488668
  - # 4
    frequency:   248.9272262212
  - # 5
    frequency:   252.9347401426
  - # 6
    frequency:   259.8580911173

- q-position: [    0.5000000,    0.0000000,    0.1250000 ]
  distance_from_gamma:  0.144862257
  weight: 1    
  band:
  - # 1
    frequency:    61.6888793090
  - # 2
    frequency:    76.3051974374
  - # 3
    frequency:   187.6054319501
  - # 4
    frequency:   229.5871168081
  - # 5
    frequency:   253.5122858536
  - # 6
    frequency:   258.9963742288

- q-position: [   -0.3750000,    0.0000000,    0.1250000 ]
  distance_from_gamma:  0.132547722
  weight: 1    
  band:
  - # 1
    frequency:    62.7553103252
  - # 2
    frequency:    75.0946130048
  - # 3
    frequency:   179.4112595864
  - # 4
    frequency:   233.0255979443
  - # 5
    frequency:   253.4761185226
  - # 6
    frequency:   260.2424431464

- q-position: [   -0.2500000,    0.0000000,    0.1250000 ]
  distance_from_gamma:  0.096293688
  weight: 1    
  band:
  - # 1
    frequency:    55.8100525899
  - # 2
    frequency:    75.0543010993
  - # 3
    frequency:   139.7585116226
  - # 4
    frequency:   250.5236775305
  - # 5
    frequency:   254.8305807808
  - # 6
    frequency:   262.6828724625

- q-position: [   -0.1250000,    0.0000000,    0.1250000 ]
  distance_from_gamma:  0.062483596
  weight: 1    
  band:
  - # 1
    frequency:    39.5057859990
  - # 2
    frequency:    60.1437597863
  - # 3
    frequency:    95.6235168369
  - # 4
    frequency:   258.3460191864
  - # 5
    frequency:   258.7125934695
  - # 6
    frequency:   270.0614770484

- q-position: [    0.0000000,    0.1250000,    0.1250000 ]
  distance_from_gamma:  0.044182574
  weight: 1    
  band:
  - # 1
    frequency:    38.6972515394
  - # 2
    frequency:    38.6972516178
  - # 3
    frequency:    67.7681168487
  - # 4
    frequency:   259.1688666243
  - # 5
    frequency:   259.1688666496
  - # 6
    frequency:   275.8918673021

- q-position: [    0.1250000,    0.1250000,    0.1250000 ]
  distance_from_gamma:  0.038263232
  weight: 1    
  band:
  - # 1
    frequency:    27.8141271732
  - # 2
    frequency:    27.8141271732
  - # 3
    frequency:    65.9311831567
  - # 4
    frequency:   261.1095752764
  - # 5
    frequency:   261.1095752764
  - # 6
    frequency:   274.3347001619

- q-position: [    0.2500000,    0.1250000,    0.1250000 ]
  distance_from_gamma:  0.062483596
  weight: 1    
  band:
  - # 1
    frequency:    39.5057856466
  - # 2
    frequency:    60.1437593125
  - # 3
    frequency:    95.6235166059
  - # 4
    frequency:   258.3460192251
  - # 5
    frequency:   258.7125935361
  - # 6
    frequency:   270.0614769503

- q-position: [    0.3750000,    0.1250000,    0.1250000 ]
  distance_from_gamma:  0.096293688
  weight: 1    
  band:
  - # 1
    frequency:    55.8100520312
  - # 2
    frequency:    75.0543005371
  - # 3
    frequency:   139.7585112991
  - # 4
    frequency:   250.5236773732
  - # 5
    frequency:   254.8305809112
  - # 6
    frequency:   262.6828722728

- q-position: [    0.5000000,    0.1250000,    0.1250000 ]
  distance_from_gamma:  0.132547722
  weight: 1    
  band:
  - # 1
    frequency:    62.7553098899
  - # 2
    frequency:    75.0946125819
  - # 3
    frequency:   179.4112595291
  - # 4
    frequency:   233.0255976562
  - # 5
    frequency:   253.4761186865
  - # 6
    frequency:   260.2424430346

- q-position: [   -0.3750000,    0.1250000,    0.1250000 ]
  distance_from_gamma:  0.144862257
  weight: 1    
  band:
  - # 1
    frequency:    61.6888796785
  - # 2
    frequency:    76.3051977686
  - # 3
    frequency:   187.6054319665
  - # 4
    frequency:   229.5871169350
  - # 5
    frequency:   253.5122858428
  - # 6
    frequency:   258.9963742344

- q-position: [   -0.2500000,    0.1250000,    0.1250000 ]
  distance_from_gamma:  0.108224762
  weight: 1    
  band:
  - # 1
    frequency:    60.0579708848
  - # 2
    frequency:    74.3463025068
  - # 3
    frequency:   154.8215492429
  - # 4
    frequency:   248.9272264652
  - # 5
    frequency:   252.9347400016
  - # 6
    frequency:   259.8580911323

- q-position: [   -0.1250000,    0.1250000,    0.1250000 ]
  distance_from_gamma:  0.073268510
  weight: 1    
  band:
  - # 1
    frequency:    54.0303792810
  - # 2
    frequency:    59.1568204611
  - # 3
    frequency:   110.6197971331
  - # 4
    frequency:   254.8170016191
  - # 5
    frequency:   256.0966696484
  - # 6
    frequency:   270.2533093014

- q-position: [    0.0000000,    0.2500000,    0.1250000 ]
  distance_from_gamma:  0.073268510
  weight: 1    
  band:
  - # 1
    frequency:    54.0303790437
  - # 2
    frequency:    59.1568201673
  - # 3
    frequency:   110.6197967621
  - # 4
    frequency:   254.8170017197
  - # 5
    frequency:   256.0966696416
  - # 6
    frequency:   270.2533091812

- q-position: [    0.1250000,    0.2500000,    0.1250000 ]
  distance_from_gamma:  0.062483596
  weight: 1    