mesh: [    10,    10,    10 ]
nqpoint: 1000   
reciprocal_lattice:
- [  -0.16797081,   0.16797081,   0.16797081 ] # a*
- [   0.16797081,  -0.16797081,   0.16797081 ] # b*
- [   0.16797081,   0.16797081,  -0.16797081 ] # c*
natom:   3      
lattice:
- [     0.000000000000000,     2.976707697552113,     2.976707697552113 ] # a
- [     2.976707697552113,     0.000000000000000,     2.976707697552113 ] # b
- [     2.976707697552113,     2.976707697552113,     0.000000000000000 ] # c
points:
- symbol: Ir # 1
  coordinates: [  0.000000000000000,  0.000000000000000,  0.000000000000000 ]
  mass: 192.217000
- symbol: Ge # 2
  coordinates: [  0.250000000000000,  0.250000000000000,  0.250000000000000 ]
  mass: 72.640000
- symbol: Ta # 3
  coordinates: [  0.750000000000000,  0.750000000000000,  0.750000000000000 ]
  mass: 180.947880

phonon:
- q-position: [    0.0000000,    0.0000000,    0.0000000 ]
  distance_from_gamma:  0.000000000
  weight: 1    
  band:
  - # 1
    frequency:    -0.5655750129
  - # 2
    frequency:    -0.5655750129
  - # 3
    frequency:    -0.5655750129
  - # 4
    frequency:   177.4870744156
  - # 5
    frequency:   177.4870744156
  - # 6
    frequency:   177.4870744156
  - # 7
    frequency:   208.6847529539
  - # 8
    frequency:   208.6847529539
  - # 9
    frequency:   208.6847529539

- q-position: [    0.1000000,    0.0000000,    0.0000000 ]
  distance_from_gamma:  0.029093398
  weight: 1    
  band:
  - # 1
    frequency:    21.4185995755
  - # 2
    frequency:    21.4185998648
  - # 3
    frequency:    48.3783385389
  - # 4
    frequency:   177.9983305011
  - # 5
    frequency:   177.9983305029
  - # 6
    frequency:   185.7359143971
  - # 7
    frequency:   209.2504697606
  - # 8
    frequency:   209.2504697731
  - # 9
    frequency:   239.1130092733

- q-position: [    0.2000000,    0.0000000,    0.0000000 ]
  distance_from_gamma:  0.058186795
  weight: 1    
  band:
  - # 1
    frequency:    43.7012533393
  - # 2
    frequency:    43.7012534940
  - # 3
    frequency:    93.1593423104
  - # 4
    frequency:   178.3750706710
  - # 5
    frequency:   178.3750706780
  - # 6
    frequency:   189.5132574635
  - # 7
    frequency:   210.6238971885
  - # 8
    frequency:   210.6238971991
  - # 9
    frequency:   235.6580617705

- q-position: [    0.3000000,    0.0000000,    0.0000000 ]
  distance_from_gamma:  0.087280193
  weight: 1    
  band:
  - # 1
    frequency:    65.2369724023
  - # 2
    frequency:    65.2369725225
  - # 3
    frequency:   130.8512910821
  - # 4
    frequency:   176.3550273253
  - # 5
    frequency:   176.3550273414
  - # 6
    frequency:   191.2205166193
  - # 7
    frequency:   212.1795975324
  - # 8
    frequency:   212.1795975405
  - # 9
    frequency:   229.6420067765

- q-position: [    0.4000000,    0.0000000,    0.0000000 ]
  distance_from_gamma:  0.116373590
  weight: 1    
  band:
  - # 1
    frequency:    82.2625662226
  - # 2
    frequency:    82.2625663372
  - # 3
    frequency:   159.2529836885
  - # 4
    frequency:   171.7582752114
  - # 5
    frequency:   171.7582752394
  - # 6
    frequency:   189.0062774233
  - # 7
    frequency:   213.3829982353
  - # 8
    frequency:   213.3829982415
  - # 9
    frequency:   222.0159673019

- q-position: [    0.5000000,    0.0000000,    0.0000000 ]
  distance_from_gamma:  0.145466988
  weight: 1    
  band:
  - # 1
    frequency:    89.1894714914
  - # 2
    frequency:    89.1894714914
  - # 3
    frequency:   168.9373125604
  - # 4
    frequency:   168.9373125604
  - # 5
    frequency:   174.9531271414
  - # 6
    frequency:   182.9889020726
  - # 7
    frequency:   213.8373890371
  - # 8
    frequency:   213.8373890371
  - # 9
    frequency:   217.9483530011

- q-position: [   -0.4000000,    0.0000000,    0.0000000 ]
  distance_from_gamma:  0.116373590
  weight: 1    
  band:
  - # 1
    frequency:    82.2625662226
  - # 2
    frequency:    82.2625663372
  - # 3
    frequency:   159.2529836885
  - # 4
    frequency:   171.7582752114
  - # 5
    frequency:   171.7582752394
  - # 6
    frequency:   189.0062774233
  - # 7
    frequency:   213.3829982353
  - # 8
    frequency:   213.3829982415
  - # 9
    frequency:   222.0159673019

- q-position: [   -0.3000000,    0.0000000,    0.0000000 ]
  distance_from_gamma:  0.087280193
  weight: 1    
  band:
  - # 1
    frequency:    65.2369724023
  - # 2
    frequency:    65.2369725225
  - # 3
    frequency:   130.8512910821
  - # 4
    frequency:   176.3550273253
  - # 5
    frequency:   176.3550273414
  - # 6
    frequency:   191.2205166193
  - # 7
    frequency:   212.1795975324
  - # 8
    frequency:   212.1795975405
  - # 9
    frequency:   229.6420067765

- q-position: [   -0.2000000,    0.0000000,    0.0000000 ]
  distance_from_gamma:  0.058186795
  weight: 1    
  band:
  - # 1
    frequency:    43.7012533393
  - # 2
    frequency:    43.7012534940
  - # 3
    frequency:    93.1593423104
  - # 4
    frequency:   178.3750706710
  - # 5
    frequency:   178.3750706780
  - # 6
    frequency:   189.5132574635
  - # 7
    frequency:   210.6238971885
  - # 8
    frequency:   210.6238971991
  - # 9
    frequency:   235.6580617705

- q-position: [   -0.1000000,    0.0000000,    0.0000000 ]
  distance_from_gamma:  0.029093398
  weight: 1    
  band:
  - # 1
    frequency:    21.4185995755
  - # 2
    frequency:    21.4185998648
  - # 3
    frequency:    48.3783385389
  - # 4
    frequency:   177.9983305011
  - # 5
    frequency:   177.9983305029
  - # 6
    frequency:   185.7359143971
  - # 7
    frequency:   209.2504697606
  - # 8
    frequency:   209.2504697731
  - # 9
    frequency:   239.1130092733

- q-position: [    0.0000000,    0.1000000,    0.0000000 ]
  distance_from_gamma:  0.029093398
  weight: 1    
  band:
  - # 1
    frequency:    21.4185995755
  - # 2
    frequency:    21.4185998648
  - # 3
    frequency:    48.3783385389
  - # 4
    frequency:   177.9983305011
  - # 5
    frequency:   177.9983305029
  - # 6
    frequency:   185.7359143971
  - # 7
    frequency:   209.2504697606
  - # 8
    frequency:   209.2504697731
  - # 9
    frequency:   239.1130092733

- q-position: [    0.1000000,    0.1000000,    0.0000000 ]
  distance_from_gamma:  0.033594162
  weight: 1    
  band:
  - # 1
    frequency:    28.9153558523
  - # 2
    frequency:    28.9153559449
  - # 3
    frequency:    51.2775485289
  - # 4
    frequency:   179.4387152186
  - # 5
    frequency:   179.4387152817
  - # 6
    frequency:   181.3473606287
  - # 7
    frequency:   208.5098597898
  - # 8
    frequency:   208.5098598154
  - # 9
    frequency:   242.1951341029

- q-position: [    0.2000000,    0.1000000,    0.0000000 ]
  distance_from_gamma:  0.055709615
  weight: 1    
  band:
  - # 1
    frequency:    43.0718792444
  - # 2
    frequency:    46.6577114244
  - # 3
    frequency:    86.3038874319
  - # 4
    frequency:   175.8243554564
  - # 5
    frequency:   180.0644534218
  - # 6
    frequency:   185.6841273228
  - # 7
    frequency:   209.6267776571
  - # 8
    frequency:   210.1517336881
  - # 9
    frequency:   240.7764358243

- q-position: [    0.3000000,    0.1000000,    0.0000000 ]
  distance_from_gamma:  0.082288555
  weight: 1    
  band:
  - # 1
    frequency:    61.3370830918
  - # 2
    frequency:    66.5760705748
  - # 3
    frequency:   122.7047520878
  - # 4
    frequency:   172.2922832544
  - # 5
    frequency:   178.0923983147
  - # 6
    frequency:   189.1912025665
  - # 7
    frequency:   211.9262485072
  - # 8
    frequency:   212.3402631947
  - # 9
    frequency:   235.5191698665

- q-position: [    0.4000000,    0.1000000,    0.0000000 ]
  distance_from_gamma:  0.110145825
  weight: 1    
  band:
  - # 1
    frequency:    80.3205531312
  - # 2
    frequency:    83.4393243182
  - # 3
    frequency:   150.6830746159
  - # 4
    frequency:   168.6159291958
  - # 5
    frequency:   173.0152515833
  - # 6
    frequency:   188.6722636953
  - # 7
    frequency:   213.8038297497
  - # 8
    frequency:   213.9836160403
  - # 9
    frequency:   228.5388963741

- q-position: [    0.5000000,    0.1000000,    0.0000000 ]
  distance_from_gamma:  0.138512277
  weight: 1    
  band:
  - # 1
    frequency:    91.6459414459
  - # 2
    frequency:    93.4888947219
  - # 3
    frequency:   161.8990964089
  - # 4
    frequency:   168.0177395667
  - # 5
    frequency:   171.7004531184
  - # 6
    frequency:   184.2669940632
  - # 7
    frequency:   214.7210277315
  - # 8
    frequency:   214.9637747157
  - # 9
    frequency:   223.2357115505

- q-position: [   -0.4000000,    0.1000000,    0.0000000 ]
  distance_from_gamma:  0.129020827
  weight: 1    
  band:
  - # 1
    frequency:    86.5529736618
  - # 2
    frequency:    93.7364168678
  - # 3
    frequency:   162.6207098226
  - # 4
    frequency:   166.9148847303
  - # 5
    frequency:   168.2277543903
  - # 6
    frequency:   188.5092911330
  - # 7
    frequency:   213.2905857480
  - # 8
    frequency:   214.8514746265
  - # 9
    frequency:   224.5301944688

- q-position: [   -0.3000000,    0.1000000,    0.0000000 ]
  distance_from_gamma:  0.100782485
  weight: 1    
  band:
  - # 1
    frequency:    70.7582859212
  - # 2
    frequency:    81.1517106610
  - # 3
    frequency:   142.6873098517
  - # 4
    frequency:   171.4620907403
  - # 5
    frequency:   172.2287413394
  - # 6
    frequency:   192.8380187561
  - # 7
    frequency:   211.4530890225
  - # 8
    frequency:   214.0417167576
  - # 9
    frequency:   229.9626374018

- q-position: [   -0.2000000,    0.1000000,    0.0000000 ]
  distance_from_gamma:  0.073216778
  weight: 1    
  band:
  - # 1
    frequency:    50.6588617898
  - # 2
    frequency:    61.9920314955
  - # 3
    frequency:   112.1453216700
  - # 4
    frequency:   175.4118578407
  - # 5
    frequency:   176.3756010883
  - # 6
    frequency:   191.9647708611
  - # 7
    frequency:   209.8562691994
  - # 8
    frequency:   212.7900218741
  - # 9
    frequency:   235.4296004514

- q-position: [   -0.1000000,    0.1000000,    0.0000000 ]
  distance_from_gamma:  0.047509319
  weight: 1    
  band:
  - # 1
    frequency:    31.6740232404
  - # 2
    frequency:    41.2275423677
  - # 3
    frequency:    76.0715898934
  - # 4
    frequency:   176.8660562866
  - # 5
    frequency:   179.1069832881
  - # 6
    frequency:   187.6371390706
  - # 7
    frequency:   208.5942893975
  - # 8
    frequency:   211.0591486529
  - # 9
    frequency:   238.7570395044

- q-position: [    0.0000000,    0.2000000,    0.0000000 ]
  distance_from_gamma:  0.058186795
  weight: 1    
  band:
  - # 1
    frequency:    43.7012533393
  - # 2
    frequency:    43.7012534940
  - # 3
    frequency:    93.1593423104
  - # 4
    frequency:   178.3750706710
  - # 5
    frequency:   178.3750706780
  - # 6
    frequency:   189.5132574635
  - # 7
    frequency:   210.6238971885
  - # 8
    frequency:   210.6238971991
  - # 9
    frequency:   235.6580617705

- q-position: [    0.1000000,    0.2000000,    0.0000000 ]
  distance_from_gamma:  0.055709615
  weight: 1    
  band:
  - # 1
    frequency:    43.0718792444
  - # 2
    frequency:    46.6577114244
  - # 3
    frequency:    86.3038874319
  - # 4
    frequency:   175.8243554564
  - # 5
    frequency:   180.0644534218
  - # 6
    frequency:   185.6841273228
  - # 7
    frequency:   209.6267776571
  - # 8
    frequency:   210.1517336881
  - # 9
    frequency:   240.7764358243

- q-position: [    0.2000000,    0.2000000,    0.0000000 ]
  distance_from_gamma:  0.067188324
  weight: 1    
  band:
  - # 1
    frequency:    57.8484267027
  - # 2
    frequency:    57.8484267769
  - # 3
    frequency:    97.6066983078
  - # 4
    frequency:   174.0688050154
  - # 5
    frequency:   179.4677895318
  - # 6
    frequency:   179.4677896084
  - # 7
    frequency:   211.1282132189
  - # 8
    frequency:   211.1282132232
  - # 9
    frequency:   245.2073220016

- q-position: [    0.3000000,    0.2000000,    0.0000000 ]
  distance_from_gamma:  0.087280193
  weight: 1    
  band:
  - # 1
    frequency:    71.5668384182
  - # 2
    frequency:    73.6518313783
  - # 3
    frequency:   122.8261360453
  - # 4
    frequency:   168.3358023496
  - # 5
    frequency:   176.3127354241
  - # 6
    frequency:   180.2224118594
  - # 7
    frequency:   214.2306754883
  - # 8
    frequency:   214.4145526899
  - # 9
    frequency:   242.8071199861

- q-position: [    0.4000000,    0.2000000,    0.0000000 ]
  distance_from_gamma:  0.111419230
  weight: 1    
  band:
  - # 1
    frequency:    87.5957861400
  - # 2
    frequency:    89.0680888786
  - # 3
    frequency:   143.7366882795
  - # 4
    frequency:   165.7072542078
  - # 5
    frequency:   170.6725504173
  - # 6
    frequency:   180.4406506137
  - # 7
    frequency:   216.9506918785
  - # 8
    frequency:   217.3885399696
  - # 9
    frequency:   236.5654351175

- q-position: [    0.5000000,    0.2000000,    0.0000000 ]
  distance_from_gamma:  0.137490033
  weight: 1    
  band:
  - # 1
    frequency:    98.1946290187
  - # 2
    frequency:   103.6771625925
  - # 3
    frequency:   149.9481432828
  - # 4
    frequency:   164.5323330323
  - # 5
    frequency:   168.2778499046
  - # 6
    frequency:   179.7488770883
  - # 7
    frequency:   218.1399668142
  - # 8
    frequency:   219.1686093060
  - # 9
    frequency:   231.0197435835

- q-position: [   -0.4000000,    0.2000000,    0.0000000 ]
  distance_from_gamma:  0.146433556
  weight: 1    
  band:
  - # 1
    frequency:    95.4965968647
  - # 2
    frequency:   110.5367898759
  - # 3
    frequency:   152.6434298703
  - # 4
    frequency:   162.5335871659
  - # 5
    frequency:   163.0128649477
  - # 6
    frequency:   185.8500766902
  - # 7
    frequency:   217.4826316364
  - # 8
    frequency:   217.7738432187
  - # 9
    frequency:   230.2236864103

- q-position: [   -0.3000000,    0.2000000,    0.0000000 ]
  distance_from_gamma:  0.119955151
  weight: 1    
  band:
  - # 1
    frequency:    82.1874653853
  - # 2
    frequency:   101.4625264801
  - # 3
    frequency:   149.7586031865
  - # 4
    frequency:   162.3220371798
  - # 5
    frequency:   166.8109431485
  - # 6
    frequency:   192.3421613807
  - # 7
    frequency:   213.2469604593
  - # 8
    frequency:   216.4696005256
  - # 9
    frequency:   232.3744723870

- q-position: [   -0.2000000,    0.2000000,    0.0000000 ]
  distance_from_gamma:  0.095018638
  weight: 1    
  band:
  - # 1
    frequency:    65.2066646401
  - # 2
    frequency:    82.9443938420
  - # 3
    frequency:   134.2330269656
  - # 4
    frequency:   169.4749506744
  - # 5
    frequency:   171.5945015308
  - # 6
    frequency:   194.6520573248
  - # 7
    frequency:   210.6083912357
  - # 8
    frequency:   214.7961583974
  - # 9
    frequency:   234.3485625339

- q-position: [   -0.1000000,    0.2000000,    0.0000000 ]
  distance_from_gamma:  0.073216778
  weight: 1    
  band:
  - # 1
    frequency:    50.6588617898
  - # 2
    frequency:    61.9920314955
  - # 3
    frequency:   112.1453216700
  - # 4
    frequency:   175.4118578407
  - # 5
    frequency:   176.3756010883
  - # 6
    frequency:   191.9647708611
  - # 7
    frequency:   209.8562691994
  - # 8
    frequency:   212.7900218741
  - # 9
    frequency:   235.4296004514

- q-position: [    0.0000000,    0.3000000,    0.0000000 ]
  distance_from_gamma:  0.087280193
  weight: 1    
  band:
  - # 1
    frequency:    65.2369724023
  - # 2
    frequency:    65.2369725225
  - # 3
    frequency:   130.8512910821
  - # 4
    frequency:   176.3550273253
  - # 5
    frequency:   176.3550273414
  - # 6
    frequency:   191.2205166193
  - # 7
    frequency:   212.1795975324
  - # 8
    frequency:   212.1795975405
  - # 9
    frequency:   229.6420067765

- q-position: [    0.1000000,    0.3000000,    0.0000000 ]
  distance_from_gamma:  0.082288555
  weight: 1    
  band:
  - # 1
    frequency:    61.3370830918
  - # 2
    frequency:    66.5760705748
  - # 3
    frequency:   122.7047520878
  - # 4
    frequency:   172.2922832544
  - # 5
    frequency:   178.0923983147
  - # 6
    frequency:   189.1912025665
  - # 7
    frequency:   211.9262485072
  - # 8
    frequency:   212.3402631947
  - # 9
    frequency:   235.5191698665

- q-position: [    0.2000000,    0.3000000,    0.0000000 ]
  distance_from_gamma:  0.087280193
  weight: 1    
  band:
  - # 1
    frequency:    71.5668384182
  - # 2
    frequency:    73.6518313783
  - # 3
    frequency:   122.8261360453
  - # 4
    frequency:   168.3358023496
  - # 5
    frequency:   176.3127354241
  - # 6
    frequency:   180.2224118594
  - # 7
    frequency:   214.2306754883
  - # 8
    frequency:   214.4145526899
  - # 9
    frequency:   242.8071199861

- q-position: [    0.3000000,    0.3000000,    0.0000000 ]
  distance_from_gamma:  0.100782485
  weight: 1    
  band:
  - # 1
    frequency:    85.0240263782
  - # 2
    frequency:    85.0240264646
  - # 3
    frequency:   131.8161457682
  - # 4
    frequency:   167.3592577764
  - # 5
    frequency:   171.6556883540
  - # 6
    frequency:   171.6556884200
  - # 7
    frequency:   217.9338347128
  - # 8
    frequency:   217.9338347323
  - # 9
    frequency:   244.2231326590

- q-position: [    0.4000000,    0.3000000,    0.0000000 ]
  distance_from_gamma:  0.119955151
  weight: 1    
  band:
  - # 1
    frequency:    97.9302512109
  - # 2
    frequency:    98.2668363961
  - # 3
    frequency:   139.4288474337
  - # 4
    frequency:   164.9944466511
  - # 5
    frequency:   166.1883279071
  - # 6
    frequency:   172.2947284449
  - # 7
    frequency:   221.0375638210
  - # 8
    frequency:   221.3416737918
  - # 9
    frequency:   239.9449917392

- q-position: [    0.5000000,    0.3000000,    0.0000000 ]
  distance_from_gamma:  0.142527958
  weight: 1    
  band:
  - # 1
    frequency:   107.3471040480
  - # 2
    frequency:   113.8296943647
  - # 3
    frequency:   140.3310708959
  - # 4
    frequency:   158.0668748314
  - # 5
    frequency:   162.5471234878
  - # 6
    frequency:   177.7052935857
  - # 7
    frequency:   222.2536881461
  - # 8
    frequency:   223.6822915998
  - # 9
    frequency:   234.9059099544

- q-position: [   -0.4000000,    0.3000000,    0.0000000 ]
  distance_from_gamma:  0.167128845
  weight: 1    
  band:
  - # 1
    frequency:   106.7820432192
  - # 2
    frequency:   126.5471907494
  - # 3
    frequency:   142.8124683230
  - # 4
    frequency:   154.5778023063
  - # 5
    frequency:   156.0713054525
  - # 6
    frequency:   181.4931934506
  - # 7
    frequency:   221.3911081846
  - # 8
    frequency:   223.2678098126
  - # 9
    frequency:   233.4556960131

- q-position: [   -0.3000000,    0.3000000,    0.0000000 ]
  distance_from_gamma:  0.142527958
  weight: 1    
  band:
  - # 1
    frequency:    96.0220841648
  - # 2
    frequency:   120.5794276713
  - # 3
    frequency:   148.7917538286
  - # 4
    frequency:   153.7438356173
  - # 5
    frequency:   160.5889495644
  - # 6
    frequency:   187.1068539396
  - # 7
    frequency:   218.6317423094
  - # 8
    frequency:   219.1316742336
  - # 9
    frequency:   233.8011323344

- q-position: [   -0.2000000,    0.3000000,    0.0000000 ]
  distance_from_gamma:  0.119955151
  weight: 1    
  band:
  - # 1
    frequency:    82.1874653853
  - # 2
    frequency:   101.4625264801
  - # 3
    frequency:   149.7586031865
  - # 4
    frequency:   162.3220371798
  - # 5
    frequency:   166.8109431485
  - # 6
    frequency:   192.3421613807
  - # 7
    frequency:   213.2469604593
  - # 8
    frequency:   216.4696005256
  - # 9
    frequency:   232.3744723870

- q-position: [   -0.1000000,    0.3000000,    0.0000000 ]
  distance_from_gamma:  0.100782485
  weight: 1    
  band:
  - # 1
    frequency:    70.7582859212
  - # 2
    frequency:    81.1517106610
  - # 3
    frequency:   142.6873098517
  - # 4
    frequency:   171.4620907403
  - # 5
    frequency:   172.2287413394
  - # 6
    frequency:   192.8380187561
  - # 7
    frequency:   211.4530890225
  - # 8
    frequency:   214.0417167576
  - # 9
    frequency:   229.9626374018

- q-position: [    0.0000000,    0.4000000,    0.0000000 ]
  distance_from_gamma:  0.116373590
  weight: 1    
  band:
  - # 1
    frequency:    82.2625662226
  - # 2
    frequency:    82.2625663372
  - # 3
    frequency:   159.2529836885
  - # 4
    frequency:   171.7582752114
  - # 5
    frequency:   171.7582752394
  - # 6
    frequency:   189.0062774233
  - # 7
    frequency:   213.3829982353
  - # 8
    frequency:   213.3829982415
  - # 9
    frequency:   222.0159673019

- q-position: [    0.1000000,    0.4000000,    0.0000000 ]
  distance_from_gamma:  0.110145825
  weight: 1    
  band:
  - # 1
    frequency:    80.3205531312
  - # 2
    frequency:    83.4393243182
  - # 3
    frequency:   150.6830746159
  - # 4
    frequency:   168.6159291958
  - # 5
    frequency:   173.0152515833
  - # 6
    frequency:   188.6722636953
  - # 7
    frequency:   213.8038297497
  - # 8
    frequency:   213.9836160403
  - # 9
    frequency:   228.5388963741

- q-position: [    0.2000000,    0.4000000,    0.0000000 ]
  distance_from_gamma:  0.111419230
  weight: 1    
  band:
  - # 1
    frequency:    87.5957861400
  - # 2
    frequency:    89.0680888786
  - # 3
    frequency:   143.7366882795
  - # 4
    frequency:   165.7072542078
  - # 5
    frequency:   170.6725504173
  - # 6
    frequency:   180.4406506137
  - # 7
    frequency:   216.9506918785
  - # 8
    frequency:   217.3885399696
  - # 9
    frequency:   236.5654351175

- q-position: [    0.3000000,    0.4000000,    0.0000000 ]
  distance_from_gamma:  0.119955151
  weight: 1    
  band:
  - # 1
    frequency:    97.9302512109
  - # 2
    frequency:    98.2668363961
  - # 3
    frequency:   139.4288474337
  - # 4
    frequency:   164.9944466511
  - # 5
    frequency:   166.1883279071
  - # 6
    frequency:   172.2947284449
  - # 7
    frequency:   221.0375638210
  - # 8
    frequency:   221.3416737918
  - # 9
    frequency:   239.9449917393

- q-position: [    0.4000000,    0.4000000,    0.0000000 ]
  distance_from_gamma:  0.134376647
  weight: 1    
  band:
  - # 1
    frequency:   108.6004427822
  - # 2
    frequency:   108.6004429069
  - # 3
    frequency:   136.6245608241
  - # 4
    frequency:   157.2851760605
  - # 5
    frequency:   157.2851760872
  - # 6
    frequency:   180.7554911615
  - # 7
    frequency:   224.3635950274
  - # 8
    frequency:   224.3635950520
  - # 9
    frequency:   237.6254938353

- q-position: [    0.5000000,    0.4000000,    0.0000000 ]
  distance_from_gamma:  0.153028690
  weight: 1    
  band:
  - # 1
    frequency:   117.3420490649
  - # 2
    frequency:   120.3397687870
  - # 3
    frequency:   134.8577397640
  - # 4
    frequency:   149.9769634807
  - # 5
    frequency:   151.0784914956
  - # 6
    frequency:   186.4694183987
  - # 7
    frequency:   225.6089460586
  - # 8
    frequency:   226.2940712097
  - # 9
    frequency:   233.7837342704

- q-position: [   -0.4000000,   -0.6000000,    0.0000000 ]
  distance_from_gamma:  0.174560385
  weight: 1    
  band:
  - # 1
    frequency:   116.5974012172
  - # 2
    frequency:   131.1846034409
  - # 3
    frequency:   136.3386163243
  - # 4
    frequency:   148.5899803551
  - # 5
    frequency:   149.5635510091
  - # 6
    frequency:   183.1155205085
  - # 7
    frequency:   224.4139562457
  - # 8
    frequency:   226.5957337530
  - # 9
    frequency:   233.2268533765

- q-position: [   -0.3000000,    0.4000000,    0.0000000 ]
  distance_from_gamma:  0.167128845
  weight: 1    
  band:
  - # 1
    frequency:   106.7820432192
  - # 2
    frequency:   126.5471907494
  - # 3
    frequency:   142.8124683230
  - # 4
    frequency:   154.5778023063
  - # 5
    frequency:   156.0713054525
  - # 6
    frequency:   181.4931934506
  - # 7
    frequency:   221.3911081846
  - # 8
    frequency:   223.2678098126
  - # 9
    frequency:   233.4556960131

- q-position: [   -0.2000000,    0.4000000,    0.0000000 ]
  distance_from_gamma:  0.146433556
  weight: 1    
  band:
  - # 1
    frequency:    95.4965968647
  - # 2
    frequency:   110.5367898759
  - # 3
    frequency:   152.6434298703
  - # 4
    frequency:   162.5335871659
  - # 5
    frequency:   163.0128649477
  - # 6
    frequency:   185.8500766902
  - # 7
    frequency:   217.4826316364
  - # 8
    frequency:   217.7738432187
  - # 9
    frequency:   230.2236864103

- q-position: [   -0.1000000,    0.4000000,    0.0000000 ]
  distance_from_gamma:  0.129020827
  weight: 1    
  band:
  - # 1
    frequency:    86.5529736618
  - # 2
    frequency:    93.7364168678
  - # 3
    frequency:   162.6207098226
  - # 4
    frequency:   166.9148847303
  - # 5
    frequency:   168.2277543903
  - # 6
    frequency:   188.5092911330
  - # 7
    frequency:   213.2905857480
  - # 8
    frequency:   214.8514746265
  - # 9
    frequency:   224.5301944688

- q-position: [    0.0000000,    0.5000000,    0.0000000 ]
  distance_from_gamma:  0.145466988
  weight: 1    
  band:
  - # 1
    frequency:    89.1894714914
  - # 2
    frequency:    89.1894714914
  - # 3
    frequency:   168.9373125604
  - # 4
    frequency:   168.9373125604
  - # 5
    frequency:   174.9531271414
  - # 6
    frequency:   182.9889020726
  - # 7
    frequency:   213.8373890371
  - # 8
    frequency:   213.8373890371
  - # 9
    frequency:   217.9483530011

- q-position: [    0.1000000,    0.5000000,    0.0000000 ]
  distance_from_gamma:  0.138512277
  weight: 1    
  band:
  - # 1
    frequency:    91.6459414459
  - # 2
    frequency:    93.4888947219
  - # 3
    frequency:   161.8990964089
  - # 4
    frequency:   168.0177395667
  - # 5
    frequency:   171.7004531184
  - # 6
    frequency:   184.2669940632
  - # 7
    frequency:   214.7210277315
  - # 8
    frequency:   214.9637747157
  - # 9
    frequency:   223.2357115505

- q-position: [    0.2000000,    0.5000000,    0.0000000 ]
  distance_from_gamma:  0.137490033
  weight: 1    
  band:
  - # 1
    frequency:    98.1946290187
  - # 2
    frequency:   103.6771625925
  - # 3
    frequency:   149.9481432828
  - # 4
    frequency:   164.5323330323
  - # 5
    frequency:   168.2778499046
  - # 6
    frequency:   179.7488770883
  - # 7
    frequency:   218.1399668142
  - # 8
    frequency:   219.1686093060
  - # 9
    frequency:   231.0197435835

- q-position: [    0.3000000,    0.5000000,    0.0000000 ]
  distance_from_gamma:  0.142527958
  weight: 1    
  band:
  - # 1
    frequency:   107.3471040480
  - # 2
    frequency:   113.8296943647
  - # 3
    frequency:   140.3310708959
  - # 4
    frequency:   158.0668748314
  - # 5
    frequency:   162.5471234878
  - # 6
    frequency:   177.7052935857
  - # 7
    frequency:   222.2536881461
  - # 8
    frequency:   223.6822915998
  - # 9
    frequency:   234.9059099544

- q-position: [    0.4000000,    0.5000000,    0.0000000 ]
  distance_from_gamma:  0.153028690
  weight: 1    
  band:
  - # 1
    frequency:   117.3420490649
  - # 2
    frequency:   120.3397687870
  - # 3
    frequency:   134.8577397640
  - # 4
    frequency:   149.9769634807
  - # 5
    frequency:   151.0784914956
  - # 6
    frequency:   186.4694183987
  - # 7
    frequency:   225.6089460586
  - # 8
    frequency:   226.2940712097
  - # 9
    frequency:   233.7837342704

- q-position: [    0.5000000,    0.5000000,    0.0000000 ]
  distance_from_gamma:  0.167970809
  weight: 1    
  band:
  - # 1
    frequency:   123.0545698796
  - # 2
    frequency:   123.0545698796
  - # 3
    frequency:   133.2913745988
  - # 4
    frequency:   145.0182077015
  - # 5
    frequency:   145.0182077015
  - # 6
    frequency:   192.3853635128
  - # 7
    frequency:   226.8933996485
  - # 8
    frequency:   226.8933996485
  - # 9
    frequency:   231.9210489820

- q-position: [   -0.4000000,   -0.5000000,    0.0000000 ]
  distance_from_gamma:  0.153028690
  weight: 1    
  band:
  - # 1
    frequency:   117.3420490649
  - # 2
    frequency:   120.3397687870
  - # 3
    frequency:   134.8577397640
  - # 4
    frequency:   149.9769634807
  - # 5
    frequency:   151.0784914956
  - # 6
    frequency:   186.4694183987
  - # 7
    frequency:   225.6089460586
  - # 8
    frequency:   226.2940712097
  - # 9
    frequency:   233.7837342704

- q-position: [   -0.3000000,   -0.5000000,    0.0000000 ]
  distance_from_gamma:  0.142527958
  weight: 1    
  band:
  - # 1
    frequency:   107.3471040480
  - # 2
    frequency:   113.8296943647
  - # 3
    frequency:   140.3310708959
  - # 4
    frequency:   158.0668748314
  - # 5
    frequency:   162.5471234878
  - # 6
    frequency:   177.7052935857
  - # 7
    frequency:   222.2536881461
  - # 8
    frequency:   223.6822915998
  - # 9
    frequency:   234.9059099544

- q-position: [   -0.2000000,   -0.5000000,    0.0000000 ]
  distance_from_gamma:  0.137490033
  weight: 1    
  band:
  - # 1
    frequency:    98.1946290187
  - # 2
    frequency:   103.6771625925
  - # 3
    frequency:   149.9481432828
  - # 4
    frequency:   164.5323330323
  - # 5
    frequency:   168.2778499046
  - # 6
    frequency:   179.7488770883
  - # 7
    frequency:   218.1399668142
  - # 8
    frequency:   219.1686093060
  - # 9
    frequency:   231.0197435835

- q-position: [   -0.1000000,   -0.5000000,    0.0000000 ]
  distance_from_gamma:  0.138512277
  weight: 1    
  band:
  - # 1
    frequency:    91.6459414459
  - # 2
    frequency:    93.4888947219
  - # 3
    frequency:   161.8990964089
  - # 4
    frequency:   168.0177395667
  - # 5
    frequency:   171.7004531184
  - # 6
    frequency:   184.2669940632
  - # 7
    frequency:   214.7210277315
  - # 8
    frequency:   214.9637747157
  - # 9
    frequency:   223.2357115505

- q-position: [    0.0000000,   -0.4000000,    0.0000000 ]
  distance_from_gamma:  0.116373590
  weight: 1    
  band:
  - # 1
    frequency:    82.2625662226
  - # 2
    frequency:    82.2625663372
  - # 3
    frequency:   159.2529836885
  - # 4
    frequency:   171.7582752114
  - # 5
    frequency:   171.7582752394
  - # 6
    frequency:   189.0062774233